TITL p21c in P2(1)/c
    p21c.res
    created by SHELXL-2017/1 at 16:07:35 on 01-Jul-2017
CELL 0.71073 10.5086 20.9035 20.5072 90 94.13 90
ZERR 4 0.0003 0.0005 0.0005 0 0.001 0
LATT 1
SYMM -X,0.5+Y,0.5-Z
SFAC  C  H  O  F  AL  GA
UNIT  1  2  3  4  5  6
LIST 4 ! automatically inserted. Change 6 to 4 for CHECKCIF!!

L.S.  0
PLAN  20
TEMP -173.18
BOND $H
fmap 2

SAME_CCF3 O1 > F9

REM Restraints for Fragment oc(cf3)3, Nonafluoro-tert-butoxy, [(CF3)3CO]-
REM from: TURBOMOLE V6.0 B-P86/def-SV(P). Please cite
REM doi:10.1107/S1600576715005580
SADI_CCF3 0.02 C1 C2 C1 C3 C1 C4
SADI_CCF3 0.02 F1 C2 F2 C2 F3 C2 F4 C3 F5 C3 F6 C3 F7 C4 F8 C4 F9 C4
SADI_CCF3 0.04 C2 C3 C3 C4 C2 C4
SADI_CCF3 0.04 O1 C2 O1 C3 O1 C4
SADI_CCF3 0.04 F1 F2 F2 F3 F3 F1 F4 F5 F5 F6 F6 F4 F7 F8 F8 F9 F9 F7
DFIX_CCF3 1.35 O1 C1
SADI_CCF3 0.1 F1 C1 F2 C1 F3 C1 F4 C1 F5 C1 F6 C1 F7 C1 F8 C1 F9 C1
SIMU_CCF3 O1 > F9
RIGU_CCF3 O1 > F9


WGHT    0.049400    0.393100
FVAR 0.08683 0.48166 0.55540

 The following is from DSR:
FRAG 17 1.0 1.0 1.0 90.0 90.0 90.0
O1    3     -0.014530      1.665900      0.109660
C1    1     -0.001460      0.268140      0.063510
C2    1     -1.133410     -0.232470     -0.907300
F1    4     -2.346610     -0.112730     -0.345440
F2    4     -0.962540     -1.506650     -1.290800
F3    4     -1.122630      0.550280     -2.017630
C3    1      1.405660     -0.231790     -0.431310
F4    4      2.385290      0.423400      0.205610
F5    4      1.532560      0.038430     -1.755380
F6    4      1.578330     -1.551530     -0.250350
C4    1     -0.278130     -0.216050      1.527950
F7    4      0.806020     -0.037590      2.304310
F8    4     -0.589100     -1.528590      1.534600
F9    4     -1.293230      0.469630      2.067350
FEND

GA1   6    0.639513    0.561735    0.237758    11.00000    0.02409    0.02507 =
         0.02491    0.00001   -0.00156    0.00159
AL1   5    0.064284    0.260189    0.478726    11.00000    0.01605    0.01974 =
         0.01368   -0.00007   -0.00220    0.00123
RESI 5 CCF3
PART 2 -21
O1    3    0.140440    0.206732    0.532772   -21.00000    0.02036    0.02640 =
         0.01363    0.00564    0.00078    0.00453
C1    1    0.182506    0.146626    0.545675   -21.00000    0.01937    0.02491 =
         0.02040   -0.00029   -0.00413    0.00831
C2    1    0.091467    0.094918    0.515340   -21.00000    0.02822    0.03047 =
         0.03623   -0.00076   -0.00447    0.00186
F1    4   -0.029898    0.112028    0.520028   -21.00000    0.02287    0.04409 =
         0.06285   -0.00462   -0.00587   -0.00341
F2    4    0.108584    0.038957    0.546024   -21.00000    0.05092    0.02505 =
         0.04759   -0.00032   -0.00657   -0.00460
F3    4    0.107912    0.085457    0.452551   -21.00000    0.05348    0.03844 =
         0.03379   -0.01253   -0.00960    0.00638
C3    1    0.316280    0.137060    0.519926   -21.00000    0.03115    0.02644 =
         0.05000    0.01003    0.00719    0.00416
F4    4    0.405858    0.168084    0.556586   -21.00000    0.02255    0.03784 =
         0.08984    0.00411   -0.00667   -0.00316
F5    4    0.319235    0.157516    0.458121   -21.00000    0.04380    0.04429 =
         0.04367    0.01643    0.01910    0.01363
F6    4    0.353970    0.075823    0.521581   -21.00000    0.02961    0.03595 =
         0.05485    0.01198    0.00772    0.02082
C4    1    0.192841    0.140515    0.621260   -21.00000    0.04271    0.02766 =
         0.02386    0.00679   -0.00758    0.00138
F7    4    0.245212    0.192790    0.649120   -21.00000    0.05167    0.03813 =
         0.03151   -0.00544   -0.01830   -0.00515
F8    4    0.264075    0.090282    0.642352   -21.00000    0.06084    0.04448 =
         0.04014    0.01620   -0.01290    0.01461
F9    4    0.078594    0.131920    0.643553   -21.00000    0.05687    0.04924 =
         0.03365    0.01036    0.01866    0.00383
PART 0
RESI 0



SADI_CF3 0.02 C1 C2 C1 C3 C1 C4
SADI_CF3 0.02 F1 C2 F2 C2 F3 C2 F4 C3 F5 C3 F6 C3 F7 C4 F8 C4 F9 C4
SADI_CF3 0.04 C2 C3 C3 C4 C2 C4
SADI_CF3 0.04 O1 C2 O1 C3 O1 C4
SADI_CF3 0.04 F1 F2 F2 F3 F3 F1 F4 F5 F5 F6 F6 F4 F7 F8 F8 F9 F9 F7
SADI_CF3 0.02 O1 C1
SADI_CF3 0.1 F1 C1 F2 C1 F3 C1 F4 C1 F5 C1 F6 C1 F7 C1 F8 C1 F9 C1
SIMU_CF3 O1 > F9
RIGU_CF3 O1 > F9
SAME_CF3 O1 > F9
RESI 6 CF3
PART 2 -31
AFIX 179
REM JFCDDOB
O1   3     0.081479     0.234761     0.401009   -31   0.04
C1   1     0.036116     0.231642     0.337033   -31   0.04
C2   1     0.123300     0.193400     0.296700   -31   0.04
F1   4     0.000000     0.000000     0.000000   -31   0.04
F2   4     0.000000     0.000000     0.000000   -31   0.04
F3   4     0.000000     0.000000     0.000000   -31   0.04
C3   1    -0.103400     0.203100     0.331900   -31   0.04
F4   4     0.000000     0.000000     0.000000   -31   0.04
F5   4     0.000000     0.000000     0.000000   -31   0.04
F6   4     0.000000     0.000000     0.000000   -31   0.04
C4   1     0.000000     0.000000     0.000000   -31   0.04
F7   4     0.000000     0.000000     0.000000   -31   0.04
F8   4     0.000000     0.000000     0.000000   -31   0.04
F9   4     0.000000     0.000000     0.000000   -31   0.04
AFIX 0
REM JFCDDOB
PART 0
RESI 0

REM REM dsr put oc(CF3)3 with o1 c1 c2 C3 on O1_4 C1_4 Q6 Q7 resi cf3 PART
REM !2 occ -31

RESI 1 CCF3
O1    3   -0.097373    0.260919    0.489317    11.00000    0.01712    0.02599 =
         0.01669   -0.00405    0.00037    0.00074
C1    1   -0.187338    0.282854    0.527525    11.00000    0.01744    0.02277 =
         0.01761   -0.00042   -0.00187    0.00134
C2    1   -0.154301    0.264427    0.600343    11.00000    0.02029    0.03779 =
         0.02205   -0.00163   -0.00019    0.00597
F1    4   -0.175181    0.202432    0.610084    11.00000    0.04033    0.04364 =
         0.02846    0.01315    0.00115    0.00373
F2    4   -0.222329    0.297024    0.641451    11.00000    0.03266    0.06799 =
         0.01963   -0.00710    0.00367    0.01580
F3    4   -0.031499    0.275543    0.616637    11.00000    0.02278    0.05773 =
         0.02206   -0.00627   -0.00805    0.00740
C3    1   -0.201068    0.356736    0.522203    11.00000    0.02162    0.02858 =
         0.02950   -0.00575    0.00033    0.00042
F4    4   -0.189470    0.376066    0.461251    11.00000    0.04567    0.02835 =
         0.03496    0.00596    0.00446    0.00186
F5    4   -0.110407    0.386667    0.560074    11.00000    0.02690    0.03296 =
         0.04591   -0.01525   -0.00149   -0.00429
F6    4   -0.313249    0.377296    0.540560    11.00000    0.02367    0.03304 =
         0.04456   -0.00661   -0.00017    0.00937
C4    1   -0.315992    0.251675    0.503977    11.00000    0.02167    0.02826 =
         0.02394    0.00049    0.00067    0.00057
F7    4   -0.362563    0.278250    0.447771    11.00000    0.02265    0.04200 =
         0.02734    0.00099   -0.01007    0.00183
F8    4   -0.404364    0.257826    0.547033    11.00000    0.02063    0.04884 =
         0.03556   -0.00154    0.00544   -0.00230
F9    4   -0.301426    0.189575    0.492525    11.00000    0.02689    0.02727 =
         0.04231   -0.00400   -0.00178   -0.00536
RESI 0

RESI 2 CCF3
O1    3    0.120475    0.336571    0.494130    11.00000    0.01592    0.02186 =
         0.02316   -0.00115   -0.00225   -0.00156
C1    1    0.223158    0.375174    0.503837    11.00000    0.01581    0.02214 =
         0.02109    0.00101   -0.00351   -0.00060
C2    1    0.325792    0.359147    0.456106    11.00000    0.02138    0.02867 =
         0.03023   -0.00083   -0.00012   -0.00070
F1    4    0.342792    0.296335    0.451996    11.00000    0.02513    0.03091 =
         0.04942   -0.00945    0.00447    0.00465
F2    4    0.439097    0.385306    0.473516    11.00000    0.01749    0.04363 =
         0.05139   -0.00537    0.00369   -0.00636
F3    4    0.290698    0.379737    0.395769    11.00000    0.03928    0.04641 =
         0.02534    0.00201    0.00751   -0.00337
C3    1    0.178826    0.445127    0.492613    11.00000    0.02218    0.02522 =
         0.02745    0.00161   -0.00200   -0.00062
F4    4    0.116011    0.466247    0.542718    11.00000    0.03133    0.02820 =
         0.03891   -0.00871    0.00247    0.00362
F5    4    0.100273    0.449627    0.439086    11.00000    0.03713    0.03260 =
         0.03457    0.00776   -0.01225    0.00734
F6    4    0.276141    0.485264    0.485739    11.00000    0.03290    0.02490 =
         0.04656    0.00508    0.00092   -0.00685
C4    1    0.282224    0.368627    0.575502    11.00000    0.02731    0.02967 =
         0.02584    0.00080   -0.00758   -0.00370
F7    4    0.192061    0.365519    0.617270    11.00000    0.04150    0.05373 =
         0.02019    0.00213   -0.00011   -0.00930
F8    4    0.358330    0.417818    0.593770    11.00000    0.03460    0.03946 =
         0.03398   -0.00366   -0.01512   -0.00992
F9    4    0.351885    0.315214    0.582795    11.00000    0.03637    0.03422 =
         0.04111    0.00791   -0.02040    0.00465
RESI 0

C34   1    0.369667    0.548733    0.213202    11.00000    0.01997    0.02268 =
         0.03068   -0.00488   -0.00282    0.00105
AFIX  43
H34   2    0.340285    0.506510    0.203863    11.00000   -1.20000
AFIX   0
C33   1    0.380581    0.569533    0.277915    11.00000    0.01592    0.03243 =
         0.02439    0.00123   -0.00200    0.00407
C32   1    0.425170    0.631366    0.290541    11.00000    0.01548    0.03216 =
         0.02654   -0.00928   -0.00394    0.00562
AFIX  43
H32   2    0.435587    0.645823    0.334520    11.00000   -1.20000
AFIX   0
C35   1    0.400667    0.588149    0.161621    11.00000    0.01798    0.02838 =
         0.02231   -0.00164   -0.00591    0.00284
C30   1    0.443763    0.649854    0.176356    11.00000    0.02046    0.02451 =
         0.02611    0.00457   -0.00250    0.00403
AFIX  43
H30   2    0.466124    0.677162    0.141960    11.00000   -1.20000
AFIX   0
C36   1    0.383705    0.565122    0.092077    11.00000    0.04278    0.03617 =
         0.02262   -0.00270   -0.00386    0.00025
AFIX 137
H36A  2    0.294976    0.571666    0.075288    11.00000   -1.50000
H36B  2    0.404587    0.519487    0.090401    11.00000   -1.50000
H36C  2    0.440496    0.589204    0.065215    11.00000   -1.50000
AFIX   0
C31   1    0.454815    0.672459    0.240677    11.00000    0.01666    0.02496 =
         0.03553   -0.00438   -0.00386    0.00401
C37   1    0.341172    0.527436    0.332518    11.00000    0.02655    0.04347 =
         0.02834    0.00159    0.00199   -0.00430
AFIX 137
H37A  2    0.409074    0.526815    0.367870    11.00000   -1.50000
H37B  2    0.326106    0.483874    0.316066    11.00000   -1.50000
H37C  2    0.262683    0.544217    0.349162    11.00000   -1.50000
AFIX   0
C38   1    0.494352    0.740481    0.255553    11.00000    0.03643    0.02786 =
         0.04828   -0.00743   -0.00695   -0.00111
AFIX 137
H38A  2    0.530257    0.759330    0.217157    11.00000   -1.50000
H38B  2    0.558735    0.741051    0.292578    11.00000   -1.50000
H38C  2    0.419785    0.765314    0.266602    11.00000   -1.50000
AFIX   0

C21   1    0.721933    0.447956    0.167567    11.00000    0.02908    0.02300 =
         0.02625   -0.00351   -0.00160    0.00707
C20   1    0.838317    0.474759    0.190360    11.00000    0.02353    0.03008 =
         0.02897    0.00418    0.00460    0.00690
AFIX  43
H20   2    0.894229    0.490728    0.159798    11.00000   -1.20000
AFIX   0
C23   1    0.673442    0.429163    0.280505    11.00000    0.03005    0.01956 =
         0.02970    0.00332    0.00332    0.00513
C25   1    0.874332    0.478620    0.256924    11.00000    0.01987    0.02793 =
         0.03491    0.00290   -0.00742    0.00376
C22   1    0.640972    0.425699    0.213115    11.00000    0.02692    0.02177 =
         0.03410   -0.00077   -0.00322    0.00170
AFIX  43
H22   2    0.561230    0.407592    0.198161    11.00000   -1.20000
AFIX   0
C28   1    0.685665    0.443530    0.095290    11.00000    0.05018    0.03686 =
         0.02589   -0.00656   -0.00464    0.00301
AFIX 137
H28A  2    0.677729    0.486683    0.076764    11.00000   -1.50000
H28B  2    0.603964    0.421095    0.088145    11.00000   -1.50000
H28C  2    0.751708    0.419933    0.073941    11.00000   -1.50000
AFIX   0
C27   1    0.588446    0.401801    0.328949    11.00000    0.04276    0.04048 =
         0.03934    0.00855    0.00625   -0.00211
AFIX 137
H27A  2    0.582705    0.431804    0.365340    11.00000   -1.50000
H27B  2    0.623818    0.361090    0.345579    11.00000   -1.50000
H27C  2    0.503157    0.394591    0.307651    11.00000   -1.50000
AFIX   0
C24   1    0.790660    0.456430    0.301112    11.00000    0.03205    0.02712 =
         0.02320    0.00019   -0.00474    0.00894
AFIX  43
H24   2    0.813802    0.459895    0.346616    11.00000   -1.20000
AFIX   0
C26   1    1.002683    0.505437    0.281390    11.00000    0.02874    0.06253 =
         0.05035    0.00715   -0.01297   -0.00261
AFIX 137
H26A  2    1.045773    0.522981    0.244524    11.00000   -1.50000
H26B  2    1.054974    0.471288    0.302233    11.00000   -1.50000
H26C  2    0.990464    0.539418    0.313265    11.00000   -1.50000
AFIX   0

RESI 3 CCF3
PART 1 21
O1    3    0.158824    0.209645    0.528026    21.00000    0.01865    0.01850 =
         0.02161   -0.00075   -0.00110    0.00549
C1    1    0.198953    0.149591    0.543725    21.00000    0.01975    0.01442 =
         0.02518    0.00295   -0.00483   -0.00255
C2    1    0.283607    0.124884    0.490295    21.00000    0.04440    0.02600 =
         0.02837    0.00175   -0.00043    0.00931
F1    4    0.355751    0.074953    0.510676    21.00000    0.04671    0.02809 =
         0.02766   -0.00421   -0.00144    0.01259
F2    4    0.359586    0.170572    0.471482    21.00000    0.04024    0.03699 =
         0.04514    0.00718    0.01782    0.01201
F3    4    0.212147    0.104118    0.438125    21.00000    0.07991    0.03921 =
         0.02915   -0.01185   -0.02119    0.02460
C3    1    0.086499    0.103513    0.549666    21.00000    0.02232    0.03077 =
         0.06379    0.01356   -0.00661    0.00103
F4    4    0.117632    0.041473    0.547408    21.00000    0.03405    0.02648 =
         0.10421    0.01848   -0.00836   -0.00120
F5    4   -0.005206    0.114147    0.502037    21.00000    0.03123    0.03551 =
         0.09637    0.00866   -0.03311   -0.00860
F6    4    0.032476    0.113039    0.606799    21.00000    0.04111    0.05264 =
         0.08378    0.03217    0.03086    0.00262
C4    1    0.280574    0.152844    0.609880    21.00000    0.03665    0.02738 =
         0.02392    0.00591   -0.00751    0.00782
F7    4    0.222359    0.187868    0.652610    21.00000    0.06598    0.04816 =
         0.01647    0.00447   -0.00425    0.02243
F8    4    0.298159    0.094428    0.636921    21.00000    0.04998    0.03160 =
         0.02785    0.01219   -0.00885    0.01295
F9    4    0.394919    0.177210    0.602373    21.00000    0.02819    0.03929 =
         0.04519   -0.00384   -0.01891    0.00192
PART 0
RESI 0

RESI 4 CCF3
PART 1 31
O1    3    0.081479    0.234761    0.401009    31.00000    0.02124    0.04640 =
         0.01653   -0.00306   -0.00813    0.00573
C1    1    0.036116    0.231642    0.337033    31.00000    0.01682    0.03097 =
         0.01916    0.00044   -0.00833    0.00470
C2    1    0.150730    0.233106    0.294420    31.00000    0.03611    0.03912 =
         0.01800   -0.00487   -0.00198    0.00625
F1    4    0.121434    0.212261    0.233223    31.00000    0.04328    0.05718 =
         0.01271   -0.00576    0.00044    0.00220
F2    4    0.245382    0.195141    0.319689    31.00000    0.02863    0.05789 =
         0.02924   -0.00436   -0.00279    0.01525
F3    4    0.196857    0.291931    0.290374    31.00000    0.04342    0.04765 =
         0.02849    0.00181    0.00562   -0.01136
C3    1   -0.052866    0.288699    0.318520    31.00000    0.03229    0.03957 =
         0.01986   -0.00333   -0.00524    0.01158
F4    4   -0.005765    0.342652    0.346474    31.00000    0.05118    0.02873 =
         0.02874   -0.00361   -0.01176    0.01349
F5    4   -0.067527    0.299607    0.254353    31.00000    0.04248    0.04550 =
         0.01892   -0.00167   -0.00475    0.01623
F6    4   -0.169081    0.279962    0.339261    31.00000    0.02449    0.06345 =
         0.03141    0.00007   -0.00473    0.01705
C4    1   -0.039094    0.168508    0.325686    31.00000    0.03143    0.04152 =
         0.02356   -0.00238   -0.01041   -0.00329
F7    4   -0.115220    0.158713    0.373649    31.00000    0.02994    0.05008 =
         0.03360   -0.00252   -0.00125   -0.01806
F8    4   -0.110166    0.168430    0.268668    31.00000    0.04727    0.04908 =
         0.03205    0.00006   -0.02080   -0.00671
F9    4    0.041064    0.118711    0.324923    31.00000    0.05415    0.03253 =
         0.03762   -0.00732   -0.01016    0.00481
PART 0
RESI 0

HKLF 4




REM  p21c in P2(1)/c
REM R1 =  0.136322 for    7085 Fo > 4sig(Fo)  and  0.177571 for all   10786
REM    819 parameters refined using   4335 restraints

END 
 
WGHT      0.2000      0.0000 

REM Highest difference peak  5.851,  deepest hole -0.898,  1-sigma level  0.296
Q1    1   0.1023  0.1998  0.2335  11.00000  0.05    5.58
Q2    1  -0.1326  0.1804  0.2718  11.00000  0.05    5.38
Q3    1  -0.1940  0.2436  0.3469  11.00000  0.05    5.36
Q4    1   0.1108  0.1309  0.3117  11.00000  0.05    5.32
Q5    1   0.1292  0.3255  0.2935  11.00000  0.05    4.90
Q6    1   0.1233  0.1934  0.2967  11.00000  0.05    3.37
Q7    1  -0.1034  0.2031  0.3319  11.00000  0.05    3.08
Q8    1   0.0187  0.3048  0.3069  11.00000  0.05    3.05
Q9    1   0.1421 -0.0284  0.5994  11.00000  0.05    0.48
Q10   1   0.1190  0.2642  0.3565  11.00000  0.05    0.47
Q11   1   0.2260  0.3467  0.2596  11.00000  0.05    0.47
Q12   1   0.0838  0.2600  0.2313  11.00000  0.05    0.46
Q13   1   0.5650  0.6501  0.1985  11.00000  0.05    0.45
Q14   1   0.1719  0.5500  0.3614  11.00000  0.05    0.45
Q15   1   0.0430  0.3797  0.2686  11.00000  0.05    0.44
Q16   1   0.5397  0.4196  0.2450  11.00000  0.05    0.44
Q17   1   0.2194  0.2615  0.2527  11.00000  0.05    0.43
Q18   1   0.1247  0.0086  0.5250  11.00000  0.05    0.43
Q19   1  -0.1782  0.3021  0.3965  11.00000  0.05    0.42
Q20   1   0.2708  0.3185  0.2776  11.00000  0.05    0.42
