# Fragment database of DSR.py
#
# Some Fragments are from geometry optimizations with Gaussian 03:
#  Gaussian 03, Revision B.04,
#  M. J. Frisch, et. al. Gaussian, Inc., Pittsburgh PA, 2003.
#
# Some with TURBOMOLE V6.0 by K.Eichkorn, O.Treutler, H.Oehm,
#  M.Haeser and R.Ahlrichs (Chemical Physics Letters 242 (1995) 652-660)
#  parallel version: M.v.Arnim  &  R.Ahlrichs quantum chemistry group
#  university  karlsruhe germany
#
# Some are from Ilia A. Guzeis Idealized Molecular Geometry Library:
#  Guzei, Ilia A. 2010. Idealized Molecular Geometry Library.
#  University of Wisconsin-Madison. Madison, WI, USA
#  http://xray.chem.wisc.edu/Projects/IdealizedMolecularGeometry.html
#
# Some are from the Cambridge structural Database:
# Groom, C. R. & Allen, F. H. (2014). Angew. Chem. Int. Ed. 53, 662-671.
# https://www.ccdc.cam.ac.uk/
#
# Some are imported from the Grade Web Server http://grade.globalphasing.org
#
# Other fragments are from in-house measurements.
#
########################################################################################
#   You can insert your own fragments to "dsr_user_db.txt". Just follow this syntax:
########################################################################################
# Database syntax:
# <name>                           <- Start tag.
# RESI class                       <- Required, defines the residue name of db entry.
# RESTRAINTS                       <- Any restraints and comments following the SHELXL syntax.
#                                     You must enter at least one restraint! e.g. RIGU C1 > C7
# FRAG 17 a b c alpha beta gamma   <- FRAG card with afix number and cell parameters.
#      Atom  number  coordinates   <- One isotropic atom per line. 
# e.g.  O1     1       x  y  z     <- Either the atom type is recognized by the atom name for 
#                                     positive numbers.
# e.g.  O1    -8       x  y  z     <- Or the atom type is defined by the negative atomic     
#                                     number.
# </name>                          <- End tag. Same as start tag but with /
#
# - Anything not being an atom after FRAG is ignored.
# - Fragment names CF3, CF6 and CF9 are reserved by DSR. Do not attempt to use them in any 
#   database entry. 
# - Only lines beginning with valid SHELXL instructions are allowed in the header.
# - Anything behind the 5th column in the atom list is ignored.
# - Long lines can be wrapped with an equal sign (=) and a space character in the next line
#   like in SHELXL, but they can also be of any length. All lines will be wrapped to fit
#   in the SHELXL file automatically.
########################################################################################

<plusminus>
rem Name: Methyl tert-butyl ether, plus minus ether, C5H12O
rem Src: CCDC ESEYIL
RESI PLMI
SIMU O1 > C5
RIGU O1 > C5
SADI 0.02 C1 C5
SADI 0.03 C1 C2 C1 C3 C1 C4
SADI 0.04 O1 C2 O1 C3 O1 C4
SADI 0.04 C2 C3 C3 C4 C4 C4
FRAG 17 1 1 1 90 90 90
O1    8      4.01221    5.88576    6.38316
C1    6      4.42964    6.57575    7.57025
C2    6      3.83689    7.95194    7.44363
C3    6      5.92586    6.59903    7.77827
C4    6      3.73072    5.69415    8.57419
C5    6      4.49275    6.31057    5.12371
</plusminus>

<ether3>
rem Name: Diethyl ether (another conformer), C4H10O
rem Src: CCDC URUNAY
RESI DIET
SADI 0.01 O1 C1 O1 C3
SADI 0.02 C1 C2 C3 C4
SADI 0.04 O1 C2 O1 C4
SIMU O1 > C4
RIGU O1 > C4
FRAG 17 1 1 1 90 90 90
O1    8     -0.47991    6.09522    8.92668
C1    6     -1.64987    6.82741    9.37082
C2    6     -2.91757    6.38949    8.68882
C3    6     -0.40513    4.76941    9.44311
C4    6      0.97807    4.22479    9.20453
</ether3>

<ether2>
rem Name: Diethyl ether (zigzag conformer), C4H10O
rem Src: CCDC 1472895
RESI DIET
SADI 0.01 O1 C1 O1 C3
SADI 0.02 C1 C2 C3 C4
SADI 0.04 O1 C2 O1 C4
SIMU O1 > C4
RIGU O1 > C4
FRAG 17 1 1 1 90 90 90
C1    6      7.40855    5.44415    4.94001
C2    6      6.03294    5.91279    5.32362
O1    8      7.39946    4.67211    3.72730
C3    6      7.39037    5.44415    2.51458
C4    6      8.76598    5.91279    2.13097
</ether2>


<hexabenz>
rem Name: Hexamethylbenzene, Mellitene, C12H18
rem Src: CCDC EXEDOC
RESI HMBE
RIGU C1 > C12
SIMU C1 > C12
SADI 0.02 C1 C7 C2 C8 C3 C9 C4 C10 C5 C11 C6 C12
SADI 0.02 C1 C2 C2 C3 C3 C4 C4 C5 C5 C6 C6 C1
SADI 0.04 C1 C3 C1 C5 C3 C5 C4 C2 C4 C6 C2 C6
SADI 0.04 C7 C2 C7 C6 C8 C3 C8 C1 C9 C2 C9 C4 C10 C3 C10 C5 C11 C4 C11 C6 C12 C5 C12 C1
FRAG 17 1 1 1 90 90 90
C1    6     -1.44289    2.34376   10.18321
C2    6     -1.51515    1.61093   11.41879
C3    6     -0.72017    0.44250   11.56420
C4    6      0.07924   -0.05233   10.47122
C5    6      0.11582    0.66920    9.25748
C6    6     -0.62769    1.89016    9.11959
C7    6     -2.25396    3.60784   10.08184
C8    6     -2.42359    2.13653   12.50216
C9    6     -0.68344   -0.32235   12.87616
C10   6      0.83291   -1.36330   10.60019
C11   6      0.96689    0.21120    8.10438
C12   6     -0.46654    2.65125    7.82860
</hexabenz>

<SBF6>
rem Name: Hexafluoroantimony, [SbF6]-, SbF6
rem Src: Stefan Meyer, Freiburg
RESI SBF6
SADI 0.02 SB1 F1 SB1 F2 SB1 F3 SB1 F4 SB1 F5 SB1 F6
SADI 0.04 F1 F2 F1 F3 F1 F4 F1 F5 F2 F3 F2 F5 F2 F6 F3 F4 F3 F6 F4 F5 F4 F6 F5 F6
RIGU SB1 > F6
SIMU SB1 > F6
FRAG 17 1 1 1 90 90 90
SB1 51 3.16696  0.00000  8.25938
F1  9  4.47589  1.31458  7.97485
F2  9  3.33721 -0.55433  6.46867
F3  9  1.84678  1.22562  7.74615
F4  9  2.99671  0.55433  10.05010
F5  9  4.48714 -1.22562  8.77262
F6  9  1.85803 -1.31458  8.54392
</SBF6>


<26dcb>
rem Name: 2,6-Dichlorobenzene, C6H3Cl2
rem Src: CCDC IRUDUW
RESI DCB
RIGU CL1 > C6
SIMU CL1 > C6
FLAT CL1 > C6
SADI 0.02 C2 Cl2 C6 Cl1
SADI 0.04 C1 Cl1 C5 Cl1 C1 Cl2 C3 Cl2
SADI 0.02 C1 C2 C2 C3 C3 C4 C4 C5 C5 C6 C6 C1
SADI 0.04 C1 C3 C3 C5 C5 C1 C2 C4 C4 C6 C6 C2
FRAG 17 1 1 1 90 90 90
Cl1   17     3.75835    4.89899    8.61530
Cl2   17     2.79635    8.97662    5.19815
C1    6      3.37299    6.97909    6.93077
C2    6      3.76181    8.22300    6.41408
C3    6      4.89314    8.88350    6.86932
C4    6      5.64670    8.31598    7.88906
C5    6      5.28914    7.09168    8.43388
C6    6      4.16246    6.44065    7.95446
</26dcb>

<dce>
rem Name: 1,2-Dichloroethane (flat), DCE, Ethylene dichloride, C2H4Cl2
rem Src: CCDC IVAHEU
RESI DCE
RIGU CL1 > CL2
SIMU CL1 > CL2
SADI 0.02 CL1 C1 CL2 C2
SADI 0.04 Cl1 C2 Cl2 C1
DFIX 1.471 C1 C2
FRAG 17 1 1 1 90 90 90
Cl1   17     5.56277    0.17443    6.77637
C1    6      4.43508    0.61098    8.04319
C2    6      4.17196   -0.61098    8.92915
Cl2   17     3.04427   -0.17443   10.19596
</dce>

<dce2>
rem Name: 1,2-Dichloroethane (angled), DCE, Ethylene dichloride, C2H4Cl2
rem Src: CCDC BUHXUZ
RESI DCE
RIGU CL1 > CL2
SIMU CL1 > CL2
SADI 0.02 CL1 C1 CL2 C2
SADI 0.04 Cl1 C2 Cl2 C1
DFIX 1.471 C1 C2
FRAG 17 1 1 1 90 90 90
Cl1   17     0.93368    4.51606   26.34032
C1    6      1.37188    3.98348   24.69602
C2    6      0.36001    4.39393   23.68050
Cl2   17    -1.19315    3.56767   23.90879
</dce2>


<tmeda1>
rem Name: Tetramethylethylenediamine coordinated, TMEDA, C6H16N2
rem Src: CCDC EVUGAF
RESI TME1
RIGU C1 > C6
SIMU C1 > C6
SADI 0.02 C1 N1 C2 N1 C5 N2 C6 N2 N1 C3 N2 C4
DFIX 1.512 C3 C4
FRAG 17 1 1 1 90 90 90
C1    6     -0.38577   -1.44740    2.73940
C2    6      1.62017   -1.37649    4.04577
N1    7      0.14817   -1.38349    4.10960
C3    6     -0.29651   -2.54636    4.89258
C4    6     -1.77513   -2.54636    5.20771
N2    7     -2.21980   -1.38349    5.99068
C5    6     -3.69180   -1.37649    6.05451
C6    6     -1.68587   -1.44740    7.36089
</tmeda1>

<tmeda2>
rem Name: Tetramethylethylenediamine free, TMEDA, C6H16N2
rem Src: CSD MOGUL 1.7.2 conformer search
RESI TME2
RIGU C1 > C6
SIMU C1 > C6
SADI 0.02 C1 N1 C2 N1 C5 N2 C6 N2 N1 C3 N2 C4
DFIX 1.512 C3 C4
FRAG 17 1 1 1 90 90 90
C1    6      9.98664    2.97159    5.58953
C2    6      8.13163    2.76495    4.05940
N1    7      8.57478    3.30037    5.39783
C3    6      7.73112    2.78562    6.49624
C4    6      6.27148    3.30674    6.40339
N2    7      5.39994    2.73530    5.39166
C5    6      4.12145    3.43624    5.33265
C6    6      5.16898    1.31172    5.56459
</tmeda2>


<isoprop>
rem Name: Isopropanole, Propan-2-ol, C3H8O
rem Src: CCDC 12671777
rem Temp: 173 K
SADI C1 C2  C1 C3
DFIX 1.4248 C1 O1
DANG 2.3732 O1 C3
DANG 2.4353 O1 C2
DANG 2.5114 C2 C3
RESI ISOP 
FRAG 17 6.1744  14.915  19.453  87.55  84.37  88.94
O1   1  0.7435  0.2855  0.4937
C1   1  0.8016  0.1938  0.5063
C2   1  0.6173  0.1314  0.5064
C3   1  0.9955  0.1713  0.4565
</isoprop>


<fluorbenz>
rem Name: Fluorobenzene, C6H5F
rem Src: CCDC FACFAQ
SADI 0.02 C1 C2 C2 C3 C3 C4 C4 C5 C5 C6 C6 C1
SADI 0.04 C1 C3 C1 C5 C3 C5 C2 C6 C2 C4 C4 C6
SADI 0.04 C2 F1 C6 F1
DFIX 1.365 C1 F1
FLAT F1 > C6
SIMU F1 > C6
RIGU F1 > C6
RESI FBE
FRAG 17 5.799 5.799 14.53 90 90 90
F1    3   0.824080   0.824080   0.000000   0.50000   0.05000
C1    1   0.990400   0.990400   0.000000   0.50000   0.05000
C2    1   1.180900   0.959100   0.055170   1.00000   0.05000
C3    1   1.349000   1.129700   0.054930   1.00000   0.05000
C4    1   1.323900   1.323900   0.000000   0.50000   0.05000
C5    1   1.129700   1.349000  -0.054930   1.00000   0.05000
C6    1   0.959100   1.180900  -0.055170   1.00000   0.05000
</fluorbenz>

<cod>
rem Name: 1,5-cyclooctadiene, COD, C8H12
rem Src: Miriam Schwab, Freiburg
RESI COD
SIMU C1 > C8
RIGU C1 > C8
DFIX 1.4991 C8 C1
DFIX 1.5308 C8 C7
DFIX 1.5219 C3 C2
DFIX 1.5375 C3 C4
DFIX 1.3723 C2 C1
DFIX 1.5092 C7 C6
DFIX 1.3611 C6 C5
DFIX 1.4985 C5 C4
DANG 2.5804 C1 C3
DANG 2.5422 C1 C7
DANG 2.5507 C2 C4
DANG 2.5646 C2 C8
DANG 2.5456 C3 C5
DANG 2.5618 C4 C6
DANG 2.5598 C5 C7
DANG 2.5368 C6 C8

FRAG 17 1 1 1 90 90 90
C1 6 3.65575 14.54827 13.45130
C2 6 2.30722 14.30194 13.51353
C3 6 1.61804 13.32113 14.45120
C4 6 1.41273 11.93324 13.82242
C5 6 2.56428 11.46903 12.98337
C6 6 3.88832 11.68732 13.21117
C7 6 4.48403 12.35221 14.42806
C8 6 4.72651 13.85137 14.23558
</cod>

<pmdeta>
REM Src: CCDC DUQJIJ
REM Name: N,N,N',N'',N''-pentamethyldiethylenetriamine, PMDETA, C9H23N3
SADI N1 C1 N1 C2 N1 C3 N2 C4 N2 C5 N2 C6 N3 C7 N3 C8 N3 C9
SADI C3 C4 C6 C7
SADI 0.04 C1 C2 C8 C9 C1 C3 C2 C3 C7 C8 C7 C9 C4 C6 C6 C5 C5 C4
SADI 0.04 N3 C6 N2 C7 N2 C3 N1 C4
RESI PMDT
RIGU N1 > C9
SIMU N1 > C9
FRAG 17 8.4887 14.884 14.588 90 96.039 90
N1     4  0.109310  0.104270  0.323520  1.000000 0.05000
N2     4  0.450180  0.116700  0.357190  1.000000 0.05000
N3     4  0.390740  0.176990  0.163690  1.000000 0.05000
C1     1  0.046430  0.146990  0.402670  1.000000 0.05000
C2     1 -0.023120  0.076760  0.256360  1.000000 0.05000
C3     1  0.205660  0.024980  0.352960  1.000000 0.05000
C4     1  0.362280  0.050320  0.407100  1.000000 0.05000
C5     1  0.571540  0.161490  0.420480  1.000000 0.05000
C6     1  0.524170  0.073370  0.281050  1.000000 0.05000
C7     1  0.544220  0.139300  0.203740  1.000000 0.05000
C8     1  0.298090  0.108100  0.109210  1.000000 0.05000
C9     1  0.422150  0.251280  0.101700  1.000000 0.05000
</pmdeta>


<dmap>
rem Name: N,N-Dimethylpyridin-4-amin, 4-N,N-Dimethylaminopyridin, DMAP, C7H10N2
rem Src: CCDC BUNDIZ
RESI DMAP
SADI C1 C2 C4 C5
SADI C2 C3 C3 C4
SADI N2 C6 N2 C7
DFIX 1.355 C3 N2
SADI N1 C1 N1 C5
FLAT N1 > C7
SIMU N1 > C7
RIGU N1 > C7
FRAG 17 1 1 1 90 90 90
N1    7     -3.61555   19.50266    7.97428
N2    7     -1.75196   23.25760    8.08188
C1    6     -2.29126   19.63251    8.10681
C2    6     -1.61291   20.82363    8.14487
C3    6     -2.34102   22.03803    8.03425
C4    6     -3.72977   21.89817    7.87718
C5    6     -4.30100   20.64532    7.85093
C6    6     -0.30687   23.40677    8.15668
C7    6     -2.53658   24.47838    8.01890
</dmap>

<pyrazine>
REM Src: CCDC GUDSUV
REM Name: Pyrazine, 1,4-Diazabenzene, 1,4-Diazine, C4H4N2
RESI PYRC
SADI C1 C2 C3 C4
SADI C1 N1 C4 N1 C2 N2 C3 N2
SADI 0.04 N1 C2 N1 C3 N2 C1 N2 C4
FLAT N1 > C4
SIMU N1 > C4
RIGU N1 > C4
FRAG 17 10.7669 10.7894 6.8101 90 117.396 90
N1      3  0.330400  0.434200  0.475100  1.000000 0.05000
N2      3  0.398600  0.683100  0.487000  1.000000 0.05000
C1      1  0.457900  0.470600  0.510300  1.000000 0.05000
C2      1  0.492500  0.595100  0.515900  1.000000 0.05000
C3      1  0.270800  0.648100  0.453700  1.000000 0.05000
C4      1  0.236200  0.523300  0.446300  1.000000 0.05000
</pyrazine>

<ptbu>
rem Name: tris-(tert-butyle)-phosphane, C12H27P
rem Src: Miriam Schwab, Freiburg
RESI PTBU
DFIX 1.9 P1 C1 P1 C5 P1 C9
SADI 0.02 C1 C2 C1 C3 C1 C4 C5 C6 C5 C7 C5 C8 C9 C10 C9 C11 C9 C12
SADI 0.04 P1 C2 P1 C3 P1 C4 P1 C6 P1 C7 P1 C8 P1 C10 P1 C11 P1 C12
SADI 0.04 C2 C3 C3 C4 C4 C2 C6 C7 C7 C8 C8 C6 C10 C11 C11 C12 C12 C10
SADI 0.04 C1 C5 C5 C9 C9 C1
SIMU P1 > C12
RIGU P1 > C12
FRAG 17 1 1 1 90 90 90
P1 15 1.77300 12.41700 11.03600
C1 6 3.23800 11.28000 11.05400
C2 6 2.81700 9.94100 11.68500
C3 6 4.45800 11.75800 11.87600
C4 6 3.68900 11.00800 9.60700
C5 6 1.95900 13.85200 9.77500
C6 6 3.37100 14.48900 9.84900
C7 6 1.70000 13.27000 8.36000
C8 6 0.89200 14.91000 10.10600
C9 6 1.45600 13.15800 12.77500
C10 6 2.42600 14.31400 13.07200
C11 6 0.02400 13.65800 12.84100
C12 6 1.62800 12.03400 13.82200
</ptbu>

<imi>
REM Name: N-methylimidazole, 1-methylimidazole, C4H6N2
REM Source: Daniel Kratzert, Freiburg
rem Restraints from atom connectivities:
DFIX 1.3477 C2   C3
DFIX 1.3815 C2   N1
DFIX 1.3739 C3   N2
DFIX 1.3152 N1   C1
DFIX 1.4820 N1   C4
DFIX 1.3333 C1   N2
DANG 2.1858 N1   C3
DANG 2.1314 N1   N2
DANG 2.1823 N2   C2
DANG 2.2097 C1   C2
DANG 2.4952 C1   C4
DANG 2.2141 C1   C3
DANG 2.5263 C2   C4
FLAT N1 N2 C1 C2 C3 C4
RESI IMI
FRAG 17 1 1 1 90 90 90
N1    7     2.72600   12.24300   16.86100
N2    7     4.78700   12.50300   16.38400
C1    6     3.91900   11.71100   17.01400
C2    6     2.81400   13.39000   16.09600
C3    6     4.12100   13.56200   15.81600
C4    6     1.45100   11.69500   17.38100
</imi>

<dma>
REM Name: N,N-dimethylacetylamide, C4H9NO, DMA
REM Src: Produced by Grade Web Server http://grade.globalphasing.org
DFIX  1.220 0.005 C2 O1
DFIX  1.497 0.005 C2 C3
DFIX  1.322 0.005 C2 N4
DFIX  1.459 0.005 C5 N4
DFIX  1.459 0.005 C6 N4
FLAT O1 > C6
RESI DMA
FRAG 17 1 1 1 90 90 90
O1    1    8.0500  -1.2400  -1.0600
C2    1    7.9400  -2.4600  -1.0900
C3    1    6.6000  -3.1200  -1.0400
N4    1    9.0300  -3.2300  -1.1800
C5    1    8.9500  -4.6900  -1.2000
C6    1   10.3800  -2.6700  -1.2500
</dma>

<phen>
rem Name: Phenanthroline, 1,10-phenanthroline, C12H8N2
rem Src: CCDC ASUGAW01
RIGU N1 > C12
SIMU N1 > C12
SADI N1 C1 N1 C12 N2 C11 N2 C10 
SADI C1 C2 C2 C3 C3 C4 C4 C5 C5 C6 C6 C7 C7 C8 C8 C9 C9 C10 C11 C12
SADI 0.04 C1 C12 C10 C11
FLAT N1 > C12
SADI 0.04 C3 C12 C2 C4 C1 C3 C12 C5 C11 C4 C6 C11 C5 C7 C4 C6 C7 C12 C8 C10 C7 C9 C8 C11
SADI 0.05 N1 C2 N1 C4 N2 C7 N2 C9
RESI PHEN
FRAG 17  8.515 12.058 17.046 90 101.675 90
N1      3  0.986600  0.156100  0.765000  1.000000 0.05000
N2      3  0.873300  0.156200  0.899200  1.000000 0.05000
C1      1  1.051800  0.158400  0.701100  1.000000 0.05000
C2      1  1.089600  0.060700  0.662400  1.000000 0.05000
C3      1  1.057000 -0.040400  0.692100  1.000000 0.05000
C4      1  0.989500 -0.046500  0.761100  1.000000 0.05000
C5      1  0.950900 -0.147200  0.797000  1.000000 0.05000
C6      1  0.885700 -0.147300  0.863400  1.000000 0.05000
C7      1  0.853700 -0.045600  0.900000  1.000000 0.05000
C8      1  0.791000 -0.037500  0.970200  1.000000 0.05000
C9      1  0.767900  0.064300  1.002100  1.000000 0.05000
C10     1  0.811800  0.160300  0.964200  1.000000 0.05000
C11     1  0.892400  0.055500  0.867400  1.000000 0.05000
C12     1  0.957800  0.055300  0.795800  1.000000 0.05000
</phen>

<crypt>
REM Src: CCDC ZOMFAK
REM Name: [2.2.2]-cryptand, C18H36N2O6, crypt
RESI CRY
SADI O1 C2 O1 C3 O2 C4 O2 C5 O3 C8 O3 C9 O4 C10 O4 C11 O5 C14 O5 C15 O6 C16 O6 C17
SADI N1 C1 N1 C7 N1 C13 N2 C6 N2 C12 N2 C18
SADI C1 C2 C3 C4 C5 C6 C7 C8 C9 C10 C11 C12 C13 C14 C15 C16 C17 C18
SADI 0.04 C2 C3 C4 C5 C8 C9 C10 C11 C14 C15 C16 C17
SADI 0.04 O1 C1 O1 C4 O2 C3 O2 C6 O3 C7 O3 C10 O4 C9 O4 C12 O5 C13 O5 C16 O6 C15 O6 C18
SADI 0.04 N1 C2 N1 C14 N1 C8 N2 C5 N2 C11 N2 C17
SIMU O1 > C18
RIGU O1 > C18
FRAG 17  10.7585 17.4741 15.2091 90 110.286 90
O1  1 1.1904  0.1183   0.19714
O2  1 0.9883  0.1098   0.27866
O3  1 0.9113  0.1264  -0.09205
O4  1 0.7180  0.0803  -0.01357
O5  1 1.0170  0.3232   0.07339
O6  1 0.7822  0.2922   0.11362
N1  1 1.1636  0.1978   0.02320
N2  1 0.7105  0.1426   0.16715
C1  1 1.2726  0.1477   0.07416
C2  1 1.3031  0.1462   0.17884
C3  1 1.2172  0.1112   0.29585
C4  1 1.1085  0.0669   0.31099
C5  1 0.8804  0.0680   0.28923
C6  1 0.7625  0.1196   0.26658
C7  1 1.1211  0.1803  -0.07771
C8  1 1.0347  0.1104  -0.10379
C9  1 0.8167  0.0676  -0.13049
C10 1 0.6923  0.0850  -0.11244
C11 1 0.5992  0.0913   0.00655
C12 1 0.6289  0.0811   0.11037
C13 1 1.2060  0.2782   0.03898
C14 1 1.0931  0.3343   0.01358
C15 1 0.9059  0.3734   0.04813
C16 1 0.8374  0.3672   0.11750
C17 1 0.7160  0.2850   0.17987
C18 1 0.6325  0.2138   0.15722
</crypt> 

<dbant>
REM Src: CCDC DBANTH12
REM Name: 9,10-Dibromoanthracene, C14H8Br2
SIMU Br1 > C14
RIGU Br1 > C14
FLAT Br1 > C14
RESI DBAN
SADI 0.02 C1 Br1 C8 Br2
SADI 0.04 Br1 C2 Br1 C14 Br2 C7 Br2 C9
SADI 0.02 C1 C2 C2 C3 C3 C4 C4 C5 C5 C6 C6 C7 C7 C8 C8 C9 C9 C10 =
 C10 C11 C11 C12 C12 C13 C13 C14 C14 C1  C2 C7 C9 C14
SADI 0.04 C1 C3 C3 C5 C5 C7 C7 C9 C9 C11 C11 C13 C13 C1 C2 C4 C4 C6 =
 C6 C8 C8 C10 C10 C12 C12 C14 C14 C2  C1 C7 C3 C7 C1 C9 C13 C9 =
 C6 C2 C8 C2 C8 C14 C10 C14 
FRAG 17 3.9739 8.7989 16.0872 78.915 83.942 80.816
Br1   3   0.355330   0.166480   0.121289   1.00000   0.05000
Br2   3   0.644670   0.833520  -0.121289   1.00000   0.05000
C1    1   0.437500   0.359500   0.050270   1.00000   0.05000
C2    1   0.290000   0.498800   0.077630   1.00000   0.05000
C3    1   0.075600   0.503900   0.154560   1.00000   0.05000
C4    1  -0.055600   0.641300   0.179710   1.00000   0.05000
C5    1   0.013100   0.785300   0.128960   1.00000   0.05000
C6    1   0.210600   0.787100   0.054250   1.00000   0.05000
C7    1   0.356500   0.645600   0.025550   1.00000   0.05000
C8    1   0.562500   0.640500  -0.050270   1.00000   0.05000
C9    1   0.710000   0.501200  -0.077630   1.00000   0.05000
C10    1   0.924400   0.496100  -0.154560   1.00000   0.05000
C11    1   1.055600   0.358700  -0.179710   1.00000   0.05000
C12    1   0.986900   0.214700  -0.128960   1.00000   0.05000
C13    1   0.789400   0.212900  -0.054250   1.00000   0.05000
C14    1   0.643500   0.354400  -0.025550   1.00000   0.05000
</dbant>

<anthracene>
REM Src: CCDC ANTCEN09
REM Name: Anthracene, C14H10
RESI ANTR
SIMU C1 > C14
RIGU C1 > C14
FLAT C1 > C14
SADI 0.02 C1 C2 C2 C3 C3 C4 C4 C5 C5 C6 C6 C7 C7 C8 C8 C9 C9 C10 =
 C10 C11 C11 C12 C12 C13 C13 C14 C14 C1  C2 C7 C9 C14
SADI 0.04 C1 C3 C3 C5 C5 C7 C7 C9 C9 C11 C11 C13 C13 C1 C2 C4 C4 C6 =
 C6 C8 C8 C10 C10 C12 C12 C14 C14 C2  C1 C7 C3 C7 C1 C9 C13 C9 =
 C6 C2 C8 C2 C8 C14 C10 C14
FRAG 17 8.4144 5.9903 11.0953 90 125.293 90
C1    1  -0.087000  -0.211100  -0.049100   1.00000   0.05000
C2    1  -0.030700  -0.134300   0.089600   1.00000   0.05000
C3    1  -0.060200  -0.264300   0.183400   1.00000   0.05000
C4    1  -0.004900  -0.186300   0.317400   1.00000   0.05000
C5    1   0.086100   0.026600   0.368100   1.00000   0.05000
C6    1   0.117200   0.155500   0.283000   1.00000   0.05000
C7    1   0.058500   0.081400   0.139800   1.00000   0.05000
C8    1   0.087000   0.211100   0.049100   1.00000   0.05000
C9    1   0.030700   0.134300  -0.089600   1.00000   0.05000
C10   1   0.060200   0.264300  -0.183400   1.00000   0.05000
C11   1   0.004900   0.186300  -0.317400   1.00000   0.05000
C12   1  -0.086100  -0.026600  -0.368100   1.00000   0.05000
C13   1  -0.117200  -0.155500  -0.283000   1.00000   0.05000
C14   1  -0.058500  -0.081400  -0.139800   1.00000   0.05000
</anthracene>

<C20>
REM Name: Fullerene-C20, C20
Rem Src: Tubomole BP86/SV(P)
REM Syst. Numbering from http://www.chem.qmul.ac.uk/iupac/fullerene/Fu01t03.html
RESI C20
SADI 0.02 C18 C9 C11 C19 C13 C12 C8 C7 C14 C4 C6 C5
SADI 0.02 C20 C13 C20 C19 C17 C18 C17 C7 C11 C10 C9 C10 C8 C1 C14 =
          C15 C15 C6 C12 C3 C3 C4 C1 C5
SADI 0.02 C17 C16 C3 C2 C20 C16 C16 C15 C2 C1 C2 C10
SADI 0.02 C18 C19 C11 C12 C13 C14 C9 C8 C7 C6 C5 C4
SADI 0.04 C1 C7 C1 C6 C3 C13 C3 C14 C4 C15 C5 C15 C8 C17 C9 C17 C10 C18 C10 C19 C11 C20 C12 C20
SADI 0.04 C1 C3 C1 C10 C3 C10 C15 C20 C15 C17 C17 C20 C2 C12 C2 C4 =
          C7 C16 C16 C18 C2 C8 C2 C5 C2 C9 C2 C11 C6 C16 C13 C16 C14 C16 C16 C19
SADI 0.04 C4 C13 C5 C14 C6 C8 C7 C9 C8 C18 C9 C19 C11 C13 C12 C14 C4 C6 =
          C5 C7 C11 C18 C12 C19 C1 C9 C1 C4 C3 C11 C3 C5 C6 C17 C7 C15 C8 =
          C10 C10 C12 C13 C15 C14 C20 C17 C19 C18 C20
SADI 0.04 C4 C12 C7 C18 C5 C8 C6 C14 C9 C11 C13 C19
FLAT C13 C14 C15 C16
FLAT C14 C15 C16 C20
FLAT C14 C4 C5 C6
FLAT C14 C15 C4 C5
FLAT C10 C2 C8 C9
FLAT C1 C10 C8 C9
FLAT C10 C11 C19 C9
FLAT C10 C11 C12 C3
FLAT C17 C18 C8 C9
FLAT C1 C6 C7 C8
FLAT C1 C5 C7 C8
FLAT C1 C2 C3 C5
FLAT C1 C2 C4 C5
SIMU C1 > C20
RIGU C1 > C20
FRAG 17 5.9316 5.66214 5.91544 90 90 90
C1    1     0.19870  0.12018 -0.24521  11.00000  0.04000
C2    1    -0.00000  0.00000 -0.33095  11.00000  0.04000
C3    1     0.00000 -0.24035 -0.24521  11.00000  0.04000
C4    1     0.20327 -0.27795 -0.11162  11.00000  0.04000
C5    1     0.33141 -0.04544 -0.11162  11.00000  0.04000
C6    1     0.33141  0.04544  0.11162  11.00000  0.04000
C7    1     0.20327  0.27795  0.11162  11.00000  0.04000
C8    1     0.12814  0.32339 -0.11162  11.00000  0.04000
C9    1    -0.12814  0.32339 -0.11162  11.00000  0.04000
C10   1    -0.19870  0.12018 -0.24521  11.00000  0.04000
C11   1    -0.33141 -0.04544 -0.11162  11.00000  0.04000
C12   1    -0.20327 -0.27795 -0.11162  11.00000  0.04000
C13   1    -0.12814 -0.32339  0.11162  11.00000  0.04000
C14   1     0.12814 -0.32339  0.11162  11.00000  0.04000
C15   1     0.19870 -0.12018  0.24521  11.00000  0.04000
C16   1    -0.00000  0.00000  0.33095  11.00000  0.04000
C17   1     0.00000  0.24035  0.24521  11.00000  0.04000
C18   1    -0.20327  0.27795  0.11162  11.00000  0.04000
C19   1    -0.33141  0.04544  0.11162  11.00000  0.04000
C20   1    -0.19870 -0.12018  0.24521  11.00000  0.04000
</C20>

<C60>
REM Name: Fullerene-C60, Buckminsterfullerene, (C60-Ih)[5,6]fullerene
REM Src: B. T. King, M. M. Olmstead, K. K. Baldridge, B. Kumar, A. L. Balch,
rem Src: J. A. Gharamaleki, Chem. Commun. 2012, 48, 9882–9884.
REM DOI: 10.1039/C2CC34472F
REM Syst. Numbering from http://www.chem.qmul.ac.uk/iupac/fullerene/Fu01t03.html
RESI C60
SADI 0.02 C6  C5  C8  C7  C9  C1  C11 C10 C12 C2  C13 C14 C15 C3  C17 C16 C18 C4  C19 C20 =
          C22 C23 C24 C25 C26 C27 C28 C29 C30 C31 C33 C32 C35 C34 C37 C36 C39 C38 C40 C21 =
          C42 C41 C44 C45 C46 C58 C47 C48 C51 C50 C52 C60 C54 C53 C55 C56 C57 C43 C59 C49
SADI 0.02 C1  C5  C2  C1  C3  C4  C3  C2  C5  C4  C6  C20 C7  C6  C7  C22 C8  C25 C9  C8  =
          C10 C9  C10 C26 C11 C29 C12 C11 C13 C30 C13 C12 C14 C33 C15 C16 C15 C14 C17 C37 =
          C18 C17 C19 C38 C19 C18 C20 C21 C22 C21 C23 C24 C26 C25 C27 C28 C30 C29 C31 C48 =
          C31 C32 C34 C16 C34 C33 C35 C36 C38 C37 C39 C40 C40 C41 C42 C23 C42 C43 C44 C24 =
          C44 C43 C45 C46 C45 C27 C46 C47 C47 C28 C48 C49 C50 C49 C50 C32 C51 C35 C52 C51 =
          C53 C52 C53 C36 C54 C39 C55 C54 C55 C41 C57 C58 C57 C56 C59 C60 C59 C58 C60 C56
SADI 0.04 C2  C5  C8  C10 C13 C29 C15 C34 C18 C37 C20 C22 C24 C43 C27 C46 C32 C48 C39 C41 =
          C51 C53 C56 C59 C2  C4  C3  C5  C6  C22 C7  C20 C8  C26 C10 C25 C11 C13 C12 C29 =
          C14 C34 C15 C33 C18 C38 C19 C37 C23 C43 C24 C42 C27 C47 C28 C46 C32 C49 C35 C53 =
          C36 C51 C39 C55 C41 C54 C48 C50 C56 C58 C57 C59 C1  C3  C1  C4  C6  C21 C7  C21 =
          C9  C25 C9  C26 C11 C30 C12 C30 C14 C16 C16 C33 C17 C38 C17 C19 C23 C44 C28 C45 =
          C31 C49 C31 C50 C35 C52 C36 C52 C40 C54 C40 C55 C42 C44 C45 C47 C57 C60 C58 C60
SADI 0.04 C1  C12 C1  C6  C2  C15 C2  C13 C3  C16 C4  C17 C5  C20 C5  C18 C7  C9  C8  C22 =
          C8  C24 C9  C11 C10 C27 C10 C29 C13 C15 C14 C30 C16 C35 C17 C36 C18 C20 C19 C21 =
          C21 C23 C22 C24 C25 C44 C26 C45 C27 C29 C28 C30 C31 C47 C31 C33 C32 C34 C32 C51 =
          C34 C51 C37 C53 C37 C39 C38 C40 C39 C53 C40 C42 C41 C56 C41 C43 C43 C56 C44 C57 =
          C45 C58 C46 C48 C46 C59 C48 C59 C49 C60 C50 C52 C52 C54 C55 C60 C1  C8  C1  C10 =
          C2  C11 C2  C9  C3  C18 C4  C15 C5  C9  C5  C7  C6  C8  C10 C12 C13 C31 C13 C33 =
          C14 C32 C15 C17 C16 C37 C16 C18 C17 C34 C19 C39 C20 C38 C20 C40 C21 C39 C21 C41 =
          C22 C42 C22 C40 C23 C41 C24 C45 C24 C26 C25 C27 C27 C44 C28 C48 C29 C47 C29 C31 =
          C30 C48 C30 C32 C34 C36 C35 C37 C43 C45 C43 C58 C44 C46 C46 C57 C49 C51 C50 C59 =
          C51 C60 C52 C56 C52 C59 C53 C55 C53 C60 C54 C56 C3  C12 C3  C14 C4  C19 C4  C6  =
          C6  C19 C7  C23 C7  C25 C11 C28 C11 C26 C12 C14 C23 C25 C26 C28 C33 C35 C33 C50 =
          C35 C50 C36 C38 C36 C54 C38 C54 C42 C55 C42 C57 C47 C49 C47 C58 C49 C58 C55 C57
FLAT  C1  C5  C6  C9
FLAT  C1  C2  C3  C5
FLAT  C1  C2  C11 C12
FLAT  C1  C5  C6  C7
FLAT  C2  C10 C11 C12
FLAT  C4  C5  C6  C18
FLAT  C5  C6  C7  C8
FLAT  C6  C7  C20 C21
FLAT  C7  C8  C22 C23
FLAT  C8  C9  C10 C25
FLAT  C8  C9  C25 C26
FLAT  C11 C13 C29 C30
FLAT  C11 C12 C29 C30
FLAT  C14 C15 C33 C34
FLAT  C14 C15 C16 C33
FLAT  C17 C18 C19 C37
FLAT  C17 C18 C37 C38
FLAT  C24 C25 C26 C44
FLAT  C25 C26 C27 C45
FLAT  C27 C28 C45 C46
FLAT  C27 C45 C46 C47
FLAT  C31 C48 C49 C50
FLAT  C32 C33 C50 C51
FLAT  C32 C48 C49 C50
FLAT  C34 C35 C50 C51
FLAT  C36 C51 C52 C53
FLAT  C39 C40 C54 C55
FLAT  C39 C40 C41 C54
FLAT  C41 C42 C55 C56
FLAT  C41 C42 C43 C57
FLAT  C46 C47 C48 C58
FLAT  C46 C47 C48 C49
FLAT  C49 C52 C59 C60
FLAT  C50 C51 C52 C60
RIGU C1 > C60
SIMU C1 > C60
FRAG 17 50 50 50 90 90 90
C1    1    -0.06959 -0.01398  0.00000  11.00000  0.04000
C2    1    -0.06062 -0.02850  0.02348  11.00000  0.04000
C3    1    -0.04611 -0.05199  0.01451  11.00000  0.04000
C4    1    -0.04611 -0.05199 -0.01451  11.00000  0.04000
C5    1    -0.06062 -0.02850 -0.02348  11.00000  0.04000
C6    1    -0.05199 -0.01451 -0.04611  11.00000  0.04000
C7    1    -0.05199  0.01451 -0.04611  11.00000  0.04000
C8    1    -0.06062  0.02850 -0.02348  11.00000  0.04000
C9    1    -0.06959  0.01398  0.00000  11.00000  0.04000
C10   1    -0.06062  0.02850  0.02348  11.00000  0.04000
C11   1    -0.05199  0.01451  0.04611  11.00000  0.04000
C12   1    -0.05199 -0.01451  0.04611  11.00000  0.04000
C13   1    -0.02850 -0.02348  0.06062  11.00000  0.04000
C14   1    -0.01451 -0.04611  0.05199  11.00000  0.04000
C15   1    -0.02348 -0.06062  0.02850  11.00000  0.04000
C16   1     0.00000 -0.06959  0.01398  11.00000  0.04000
C17   1     0.00000 -0.06959 -0.01398  11.00000  0.04000
C18   1    -0.02348 -0.06062 -0.02850  11.00000  0.04000
C19   1    -0.01451 -0.04611 -0.05199  11.00000  0.04000
C20   1    -0.02850 -0.02348 -0.06062  11.00000  0.04000
C21   1    -0.01398  0.00000 -0.06959  11.00000  0.04000
C22   1    -0.02850  0.02348 -0.06062  11.00000  0.04000
C23   1    -0.01451  0.04611 -0.05199  11.00000  0.04000
C24   1    -0.02348  0.06062 -0.02850  11.00000  0.04000
C25   1    -0.04611  0.05199 -0.01451  11.00000  0.04000
C26   1    -0.04611  0.05199  0.01451  11.00000  0.04000
C27   1    -0.02348  0.06062  0.02850  11.00000  0.04000
C28   1    -0.01451  0.04611  0.05199  11.00000  0.04000
C29   1    -0.02850  0.02348  0.06062  11.00000  0.04000
C30   1    -0.01398  0.00000  0.06959  11.00000  0.04000
C31   1     0.01398  0.00000  0.06959  11.00000  0.04000
C32   1     0.02850 -0.02348  0.06062  11.00000  0.04000
C33   1     0.01451 -0.04611  0.05199  11.00000  0.04000
C34   1     0.02348 -0.06062  0.02850  11.00000  0.04000
C35   1     0.04611 -0.05199  0.01451  11.00000  0.04000
C36   1     0.04611 -0.05199 -0.01451  11.00000  0.04000
C37   1     0.02348 -0.06062 -0.02850  11.00000  0.04000
C38   1     0.01451 -0.04611 -0.05199  11.00000  0.04000
C39   1     0.02850 -0.02348 -0.06062  11.00000  0.04000
C40   1     0.01398  0.00000 -0.06959  11.00000  0.04000
C41   1     0.02850  0.02348 -0.06062  11.00000  0.04000
C42   1     0.01451  0.04611 -0.05199  11.00000  0.04000
C43   1     0.02348  0.06062 -0.02850  11.00000  0.04000
C44   1     0.00000  0.06959 -0.01398  11.00000  0.04000
C45   1     0.00000  0.06959  0.01398  11.00000  0.04000
C46   1     0.02348  0.06062  0.02850  11.00000  0.04000
C47   1     0.01451  0.04611  0.05199  11.00000  0.04000
C48   1     0.02850  0.02348  0.06062  11.00000  0.04000
C49   1     0.05199  0.01451  0.04611  11.00000  0.04000
C50   1     0.05199 -0.01451  0.04611  11.00000  0.04000
C51   1     0.06062 -0.02850  0.02348  11.00000  0.04000
C52   1     0.06959 -0.01398  0.00000  11.00000  0.04000
C53   1     0.06062 -0.02850 -0.02348  11.00000  0.04000
C54   1     0.05199 -0.01451 -0.04611  11.00000  0.04000
C55   1     0.05199  0.01451 -0.04611  11.00000  0.04000
C56   1     0.06062  0.02850 -0.02348  11.00000  0.04000
C57   1     0.04611  0.05199 -0.01451  11.00000  0.04000
C58   1     0.04611  0.05199  0.01451  11.00000  0.04000
C59   1     0.06062  0.02850  0.02348  11.00000  0.04000
C60   1     0.06959  0.01398  0.00000  11.00000  0.04000
</C60>

<C70>
REM Name: Fullerene-C70, rugbyballene, (C70-D5h)[5,6]fullerene, C70
REM Src: L. N. Wirz, R. Tonner, A. Hermann, R. Sure, P. Schwerdtfeger,
REM Src: J. Comput. Chem. 2016, 37, 10–17.
REM Syst. Numbering from http://www.chem.qmul.ac.uk/iupac/fullerene/Fu01t03.html
REM DOI: 10.1002/jcc.23894
REM D5h, isomer 8149, E = -2662.40103868
RESI C70
SADI 0.02 C62 C63 C68 C67 C28 C48 C7  C22 C43 C42 C57 C38 C17 C18 C32 C52 C10 C9  C15 C14 =
          C54 C53 C34 C33 C36 C37 C44 C45 C55 C56 C25 C8 C16 C35 C27 C26 C46 C47 C24 C23
SADI 0.02 C41 C21 C39 C19 C1 C6 C3 C4 C31 C13 C29 C11 C69 C58 C61 C60 C49 C64 C51 C66
SADI 0.02 C68 C69 C31 C32 C29 C28 C13 C14 C11 C10 C62 C61 C67 C66 C7  C6  C58 C57 C60 C43 =
          C17 C4 C52 C51 C48 C49 C41 C42 C21 C22 C39 C38 C19 C18 C9 C1 C3 C15 C63 C64
SADI 0.02 C54 C55 C54 C34 C45 C46 C26 C46 C34 C35 C36 C35 C36 C55 C45 C24 C25 C26 C25 C24
SADI 0.02 C40 C59 C70 C65 C30 C50 C12 C2 C20 C5
SADI 0.02 C21 C20 C31 C30 C30 C29 C13 C12 C11 C12 C69 C70 C61 C70 C58 C59 C59 C60 C20 C19 =
          C5 C6 C5 C4 C50 C51 C50 C49 C64 C65 C65 C66 C41 C40 C40 C39 C1 C2 C2 C3
SADI 0.02 C28 C27 C44 C43 C7  C8  C57 C56 C33 C14 C33 C32 C17 C16 C38 C37 C27 C10 C42 C23 =
          C68 C56 C44 C62 C67 C53 C53 C52 C8 C9 C16 C15 C22 C23 C18 C37 C48 C47 C47 C63
SADI 0.04 C10 C28 C9  C7  C17 C15 C67 C52 C32 C14 C48 C63 C62 C43 C42 C22 C18 C38 C57 C68 C10 =
          C29 C9  C6  C1  C7  C3  C17 C48 C64 C28 C11 C31 C14 C13 C32 C62 C60 C66 C52 C51 C67 =
          C42 C21 C43 C61 C58 C68 C69 C57 C22 C41 C19 C38 C39 C18 C4  C15 C63 C49
SADI 0.04 C1 C3 C29 C31 C11 C13 C64 C66 C49 C51 C60 C58 C61 C69 C21 C19 C41 C39 C6 C4
SADI 0.04 C63 C61 C9  C11 C48 C29 C28 C49 C31 C52 C13 C15 C62 C64 C66 C68 C51 C32 C42 C60 C58 =
          C38 C69 C67 C22 C6  C4  C18 C10 C1  C3  C14 C43 C41 C7  C21 C19 C17 C39 C57 C27 C9  =
          C8  C22 C18 C16 C33 C15 C27 C48 C10 C8  C47 C28 C47 C62 C44 C63 C44 C42 C23 C7  C23 =
          C43 C37 C57 C37 C17 C56 C38 C53 C68 C53 C32 C33 C52 C16 C14 C56 C67 C27 C46 C27 C25 =
          C26 C47 C47 C45 C46 C44 C44 C24 C45 C23 C23 C25 C24 C8  C37 C35 C37 C55 C36 C16 C36 =
          C56 C56 C54 C55 C53 C53 C34 C54 C33 C33 C35 C26 C8  C34 C16 C10 C26 C26 C28 C9  C25 =
          C48 C46 C62 C45 C45 C43 C42 C24 C24 C22 C7  C25 C18 C36 C17 C35 C36 C38 C57 C55 C55 =
          C68 C54 C52 C32 C34 C34 C14 C15 C35 C46 C63 C67 C54
SADI 0.04 C46 C25 C46 C24 C36 C54 C54 C35 C26 C45 C26 C24 C45 C25 C36 C34 C55 C35 C55 C34 C8  =
          C6  C4  C16 C27 C11 C27 C29 C1  C8  C3  C16 C47 C49 C47 C64 C31 C33 C13 C33 C44 C61 =
          C44 C60 C66 C53 C51 C53 C23 C21 C23 C41 C58 C56 C69 C56 C19 C37 C39 C37
SADI 0.04 C2  C11 C2  C13 C29 C50 C30 C51 C30 C49 C31 C50 C64 C70 C65 C69 C65 C61 C66 C70 C60 =
          C40 C58 C40 C21 C5  C19 C5  C1  C12 C3  C12 C59 C39 C59 C41 C20 C6  C20 C4  C1  C5  =
          C3  C5  C30 C13 C30 C11 C64 C50 C66 C50 C20 C39 C20 C41 C2  C6  C2  C4  C29 C12 C31 =
          C12 C65 C49 C65 C51 C60 C70 C59 C69 C59 C61 C58 C70 C21 C40 C19 C40
SADI 0.04 C10 C12 C9  C2  C2  C15 C48 C50 C28 C30 C30 C32 C12 C14 C62 C70 C63 C65 C65 C67 C50 =
          C52 C42 C40 C43 C59 C59 C57 C70 C68 C7  C5  C22 C20 C20 C18 C40 C38 C5  C17
FLAT  C1  C11 C12 C2
FLAT  C1  C7  C8  C9
FLAT  C6  C7  C8  C9
FLAT  C10 C11 C27 C28
FLAT  C10 C27 C28 C29
FLAT  C11 C12 C13 C29
FLAT  C13 C14 C31 C33
FLAT  C13 C14 C32 C33
FLAT  C14 C15 C16 C33
FLAT  C15 C16 C17 C4
FLAT  C15 C16 C34 C35
FLAT  C16 C17 C3  C4
FLAT  C16 C17 C18 C37
FLAT  C18 C35 C36 C37
FLAT  C19 C20 C39 C40
FLAT  C21 C22 C41 C42
FLAT  C22 C23 C24 C25
FLAT  C24 C26 C45 C46
FLAT  C24 C25 C45 C46
FLAT  C24 C25 C7  C8
FLAT  C28 C29 C30 C48
FLAT  C28 C29 C30 C50
FLAT  C29 C30 C49 C50
FLAT  C32 C33 C52 C53
FLAT  C32 C33 C34 C54
FLAT  C36 C37 C55 C56
FLAT  C40 C41 C42 C59
FLAT  C40 C41 C42 C43
FLAT  C41 C42 C43 C60
FLAT  C43 C44 C60 C61
FLAT  C43 C60 C61 C62
FLAT  C44 C47 C62 C63
FLAT  C45 C46 C47 C63
FLAT  C46 C47 C62 C63
FLAT  C47 C49 C63 C64
FLAT  C48 C49 C63 C64
FLAT  C49 C50 C51 C64
FLAT  C51 C52 C53 C66
FLAT  C51 C52 C53 C67
FLAT  C56 C58 C68 C69
FLAT  C57 C58 C68 C69
FLAT  C61 C62 C63 C70
FLAT  C63 C64 C65 C70

SIMU C1 > C70
RIGU C1 > C70
FRAG 17 50 50 50 90 90 90
C1    1    -0.02428 -0.00010  0.06973  11.00000  0.04000
C2    1     0.00000  0.01499  0.07000  11.00000  0.04000
C3    1     0.02428 -0.00010  0.06973  11.00000  0.04000
C4    1     0.02428 -0.02834  0.06371  11.00000  0.04000
C5    1     0.00000 -0.04223  0.05780  11.00000  0.04000
C6    1    -0.02428 -0.02834  0.06371  11.00000  0.04000
C7    1    -0.04907 -0.03453  0.04991  11.00000  0.04000
C8    1    -0.06468 -0.01013  0.04753  11.00000  0.04000
C9    1    -0.04907  0.01118  0.05965  11.00000  0.04000
C10   1    -0.04907  0.03680  0.04827  11.00000  0.04000
C11   1    -0.02428  0.05183  0.04664  11.00000  0.04000
C12   1    -0.00000  0.04192  0.05803  11.00000  0.04000
C13   1     0.02428  0.05183  0.04664  11.00000  0.04000
C14   1     0.04907  0.03680  0.04827  11.00000  0.04000
C15   1     0.04907  0.01118  0.05965  11.00000  0.04000
C16   1     0.06468 -0.01013  0.04753  11.00000  0.04000
C17   1     0.04907 -0.03453  0.04991  11.00000  0.04000
C18   1     0.04907 -0.05328  0.02907  11.00000  0.04000
C19   1     0.02428 -0.06635  0.02145  11.00000  0.04000
C20   1     0.00000 -0.06194  0.03589  11.00000  0.04000
C21   1    -0.02428 -0.06635  0.02145  11.00000  0.04000
C22   1    -0.04907 -0.05328  0.02907  11.00000  0.04000
C23   1    -0.06468 -0.04834  0.00505  11.00000  0.04000
C24   1    -0.07971 -0.02465  0.00258  11.00000  0.04000
C25   1    -0.07971 -0.00517  0.02424  11.00000  0.04000
C26   1    -0.07971  0.02145  0.01240  11.00000  0.04000
C27   1    -0.06468  0.04207  0.02432  11.00000  0.04000
C28   1    -0.04907  0.06019  0.00780  11.00000  0.04000
C29   1    -0.02428  0.06628  0.02164  11.00000  0.04000
C30   1    -0.00000  0.07121  0.00737  11.00000  0.04000
C31   1     0.02428  0.06628  0.02164  11.00000  0.04000
C32   1     0.04907  0.06019  0.00780  11.00000  0.04000
C33   1     0.06468  0.04207  0.02432  11.00000  0.04000
C34   1     0.07971  0.02145  0.01240  11.00000  0.04000
C35   1     0.07971 -0.00517  0.02423  11.00000  0.04000
C36   1     0.07971 -0.02465  0.00258  11.00000  0.04000
C37   1     0.06468 -0.04834  0.00505  11.00000  0.04000
C38   1     0.04907 -0.05814 -0.01742  11.00000  0.04000
C39   1     0.02428 -0.06935 -0.00727  11.00000  0.04000
C40   1     0.00000 -0.06802 -0.02230  11.00000  0.04000
C41   1    -0.02428 -0.06935 -0.00727  11.00000  0.04000
C42   1    -0.04907 -0.05814 -0.01742  11.00000  0.04000
C43   1    -0.04907 -0.04411 -0.04169  11.00000  0.04000
C44   1    -0.06468 -0.01974 -0.04441  11.00000  0.04000
C45   1    -0.07971 -0.01007 -0.02264  11.00000  0.04000
C46   1    -0.07971  0.01842 -0.01657  11.00000  0.04000
C47   1    -0.06468  0.03614 -0.03250  11.00000  0.04000
C48   1    -0.04907  0.05727 -0.02008  11.00000  0.04000
C49   1    -0.02428  0.06037 -0.03488  11.00000  0.04000
C50   1    -0.00000  0.06814 -0.02194  11.00000  0.04000
C51   1     0.02428  0.06037 -0.03488  11.00000  0.04000
C52   1     0.04907  0.05727 -0.02008  11.00000  0.04000
C53   1     0.06468  0.03614 -0.03250  11.00000  0.04000
C54   1     0.07971  0.01842 -0.01657  11.00000  0.04000
C55   1     0.07971 -0.01007 -0.02264  11.00000  0.04000
C56   1     0.06468 -0.01974 -0.04441  11.00000  0.04000
C57   1     0.04907 -0.04411 -0.04169  11.00000  0.04000
C58   1     0.02428 -0.04090 -0.05647  11.00000  0.04000
C59   1     0.00000 -0.05327 -0.04782  11.00000  0.04000
C60   1    -0.02428 -0.04090 -0.05647  11.00000  0.04000
C61   1    -0.02428 -0.01452 -0.06820  11.00000  0.04000
C62   1    -0.04907 -0.00140 -0.06067  11.00000  0.04000
C63   1    -0.04907  0.02602 -0.05483  11.00000  0.04000
C64   1    -0.02428  0.04107 -0.05635  11.00000  0.04000
C65   1    -0.00000  0.02902 -0.06544  11.00000  0.04000
C66   1     0.02428  0.04107 -0.05635  11.00000  0.04000
C67   1     0.04907  0.02602 -0.05483  11.00000  0.04000
C68   1     0.04907 -0.00140 -0.06067  11.00000  0.04000
C69   1     0.02428 -0.01452 -0.06820  11.00000  0.04000
C70   1    -0.00000  0.00019 -0.07159  11.00000  0.04000
</C70>


<PFADAMO>
REM Name: Perfluoroadamantol, C10O1F15
REM Source: Olaf Petersen, Freiburg
DFIX 1.329 O1 C1
SADI C1 C2 C1 C3 C1 C4
SADI C2 C9 C3 C7 C4 C5
SADI C5 C6 C6 C7 C7 C8 C8 C9 C9 C10 C10 C5
SADI 0.03 C2 F1 C2 F2 C3 F3 C3 F4 C4 F5 C4 F6 C5 F7 C6 F8 C6 F9 C7 F10 =
          C8 F11 C8 F12 C9 F13 C10 F14 C10 F15
SADI 0.04 C1 C5 C1 C7 C1 C9
SADI 0.04 C2 C3 C3 C4 C2 C4 C5 C7 C7 C9 C9 C5 C6 C8 C8 C10 C10 C6 =
          C2 C8 C2 C10 C3 C6 C3 C8 C4 C10 C4 C6 
SADI 0.04 F1 F2  F3 F4  F5 F6  
SADI 0.04 F8 F9 F11 F12 F14 F15
SADI 0.04 F7 C6 F7 C10 F10 C6 F10 C8 F13 C8 F13 C10
SIMU O1 > F15
RIGU O1 > F15
RESI ADAM
FRAG 17 12.0095  22.0262  20.4662   90.000  100.829   90.000
O1   1     0.70183   0.26712   0.55878   11.0   0.04
C1   2     0.76073   0.31301   0.54023   11.0   0.04
C2   2     0.84566   0.33887   0.59810   11.0   0.04
F1   3     0.79069   0.36168   0.64624   11.0   0.04
F2   3     0.92118   0.29141   0.62440   11.0   0.04
C3   2     0.68548   0.36785   0.50743   11.0   0.04
F3   3     0.62802   0.39026   0.55676   11.0   0.04
F4   3     0.61013   0.34480   0.45409   11.0   0.04
C4   2     0.82958   0.29216   0.48791   11.0   0.04
F5   3     0.75112   0.27126   0.43122   11.0   0.04
F6   3     0.90105   0.24547   0.51246   11.0   0.04
C5   2     0.90393   0.34840   0.46155   11.0   0.04
F7   3     0.95256   0.32060   0.41765   11.0   0.04
C6   2     0.81212   0.39106   0.43542   11.0   0.04
F8   3     0.75251   0.38078   0.37787   11.0   0.04
F9   3     0.87711   0.44324   0.41380   11.0   0.04
C7   2     0.76027   0.42380   0.48474   11.0   0.04
F10  3     0.68103   0.46239   0.46162   11.0   0.04
C8   2     0.83467   0.43912   0.54881   11.0   0.04
F11  3     0.78785   0.46776   0.59229   11.0   0.04
F12  3     0.89891   0.48968   0.53089   11.0   0.04
C9   2     0.92371   0.39497   0.57435   11.0   0.04
F13  3     0.98977   0.40767   0.63295   11.0   0.04
C10  2     0.97811   0.36388   0.52714   11.0   0.04
F14  3     1.06082   0.32692   0.54829   11.0   0.04
F15  3     1.04624   0.41295   0.50745   11.0   0.04
</PFADAMO>



<Toluene>
REM Name: Toluene, C7H8
REM Source: CCDC CESLUJ
RESI TOL
SADI C2 C3  C3 C4  C4 C5  C5 C6  C6 C7  C7 C2
SADI 0.04 C2 C6  C2 C4  C7 C5  C3 C7  C4 C6  C3 C5
DFIX 1.51 C1 C2
SADI 0.04 C1 C7  C1 C3
FLAT C1 > C7
SIMU C1 > C7
RIGU C1 > C7
FRAG  17  11.246 14.1233 27.1842 90 100.079 90
C1      1  0.348100  0.506190  0.448510  1.000000 0.05000
C2      1  0.371740  0.588160  0.416130  1.000000 0.05000
C3      1  0.277060  0.638780  0.388210  1.000000 0.05000
C4      1  0.297580  0.713550  0.358250  1.000000 0.05000
C5      1  0.415480  0.739510  0.355590  1.000000 0.05000
C6      1  0.510680  0.690330  0.383120  1.000000 0.05000
C7      1  0.489380  0.615360  0.412970  1.000000 0.05000
</TOLUENE>

<Benzene>
REM Name: Benzene, Benzol, C6H6
REM SRC: UGEDEQ
RESI BENZ
SADI 0.02 C1 C2 C2 C3 C3 C4 C4 C5 C5 C6 C6 C1
SADI 0.04 C1 C5 C1 C5 C4 C2 C4 C6 C6 C2 C5 C3
FLAT C1 > C6
SIMU C1 > C6
RIGU C1 > C6
FRAG  17  11.099 9.791 26.324 90 90 90
C1      1  0.880000 -0.330900  0.267190  1.000000 0.05000
C2      1  0.786200 -0.377700  0.238080  1.000000 0.05000
C3      1  0.760600 -0.318400  0.192570  1.000000 0.05000
C4      1  0.829200 -0.212200  0.175520  1.000000 0.05000
C5      1  0.923200 -0.164400  0.204000  1.000000 0.05000
C6      1  0.948800 -0.223200  0.249920  1.000000 0.05000
</Benzene>

<DME-free>
REM Name: 1,2-Dimethoxyethane, not coordinated, C4H10O2, DME
rem Src: Turbomole, B3-LYP/def2-TZVPP
rem This DME is not coordinated
RESI DME
DFIX 1.409 O1 C1 O2 C4
DFIX 1.412 O1 C2 O2 C3
DFIX 1.510 C2 C3
DANG 2.354 C1 C2 C3 C4
DANG 2.390 C2 O2 O1 C3
SIMU O1 > C4
RIGU O1 > C4
FRAG 17 1 1 1 90 90 90
O1  1  -1.3542148   -0.4780990   -0.5279749
O2  1   1.3983981   -0.3777806    0.4922128
C1  1  -2.7100766   -0.6834933   -0.2027211
C2  1  -0.7677388    0.5855895    0.1921388
C3  1   0.7022675    0.6754980   -0.1402004
C4  1   2.7670633   -0.4138645    0.1574639
</DME-free>


<DME>
REM SRC: TURBOMOLE, B3-LYP/def2-TZVP
rem Name: 1,2-Dimethoxyethane, coordinated to Na, C4H10O2, DME
REM This DME was coordinated to Na
RESI DME
DFIX 1.436 O1 C1 O2 C4 O1 C2 O2 C3
DFIX 1.510 C2 C3
DANG 2.394 C1 C2 C3 C4
DANG 2.412 C2 O2 O1 C3
SIMU C1 > C4
RIGU C1 > C4
FRAG 17  1  1  1  90  90  90
O1    1     -1.154  -0.748   0.526
O2    1      1.089   0.908   0.398
C1    1     -2.458  -1.345   0.452
C2    1     -0.693  -0.252  -0.740
C3    1      0.794   0.006  -0.679
C4    1      2.404   1.477   0.307
</DME>

<Chlorobenz>
REM Src: pbe1pbe/6-311++G(3df,3pd), Ilia A. Guzei
rem Name: Chlorobenzene, C6H5Cl
RESI CBZ
SADI C1 C2 C2 C3 C3 C4 C4 C5 C5 C6 C6 C1
SADI C1 C3 C3 C5 C2 C6 C2 C4 C4 C6 C1 C5
SADI Cl1 C2 Cl1 C6
FLAT Cl1 > C6
SIMU Cl1 > C6
RIGU Cl1 > C6
FRAG 17 1 1 1 90 90 90
Cl1 3 0.000000  0.000000  2.254410
C1  1 0.000000  0.000000  0.511618
C2  1 0.000000 -1.215734 -0.174314
C3  1 0.000000 -1.207087 -1.570551
C4  1 0.000000  0.000000 -2.272838
C5  1 0.000000  1.207087 -1.570551
C6  1 0.000000  1.215734 -0.174314
</Chlorobenz>

<18C6>
rem Src: CCDC GOJHOE
REM Name: 18-Crown-6, C12H24O6, 18C6
RESI CRO
SADI O1 C1 O1 C12 O2 C2 O2 C3 O3 C4 O3 C5 O4 C6 O4 C7 O5 C8 O5 C9 O6 C10 O6 C11
SADI C1 C2 C3 C4 C5 C6 C7 C8 C9 C10 C11 C12
SADI 0.04 C2 C3 C4 C5 C6 C7 C8 C9 C10 C11 C12 C1
SADI 0.04 O1 C2 O2 C4 O3 C6 O4 C8 O5 C10 O6 C12 O2 C1 O3 C3 O4 C5 O5 C7 O6 C9 O1 C11
SIMU O1 > C12
RIGU O1 > C12
FRAG 17  14.1654 16.2527 18.5337 90 90 90
O1  1 -0.01662  0.07694   0.67990
O2  1  0.14175 -0.02600   0.67449
O3  1  0.32113  0.05133   0.66739
O4  1  0.33531  0.19339   0.57813
O5  1  0.17375  0.29194   0.56659
O6  1 -0.00617  0.22166   0.59682
C1  1 -0.02434 -0.01024   0.67262
C2  1  0.05704 -0.04940   0.71057
C3  1  0.22362 -0.05769   0.70987
C4  1  0.30817 -0.03582   0.66628
C5  1  0.40544  0.07583   0.63173
C6  1  0.40792  0.16734   0.62631
C7  1  0.33988  0.27967   0.56358
C8  1  0.25439  0.30410   0.52171
C9  1  0.08864  0.31593   0.53139
C10 1  0.00863  0.30676   0.58306
C11 1 -0.07793  0.20842   0.64982
C12 1 -0.09838  0.11846   0.65305
</18C6>

<mesityl>
rem Name: Mesitylene, 1,3,5-Trimethylbenzene, C9H12
REM Src: CCDC MOLGAX
RESI MESI
SADI C1 C2 C2 C3 C3 C4 C4 C5 C5 C6 C6 C1
SADI 0.04 C1 C3 C3 C5 C5 C1 C2 C6 C2 C4 C4 C6
SADI C1 C7 C3 C8 C5 C9
SADI 0.04 C2 C7 C6 C7 C6 C9 C4 C9 C4 C8 C2 C8
FLAT C1 > C9
SIMU C1 > C9
RIGU C1 > C9
FRAG 17 7.0546 9.8563 16.396 73.042 88.21 71.792
C1      1  0.284300  0.487260  0.157550
C2      1  0.268900  0.545230  0.069230
C3      1  0.214400  0.699000  0.028380
C4      1  0.176700  0.794510  0.079330
C5      1  0.190400  0.740000  0.168120
C6      1  0.244800  0.586600  0.206550
C7      1  0.339000  0.321100  0.200360
C8      1  0.191500  0.759000 -0.067800
C9      1  0.141600  0.845800  0.221820
</mesityl>

<PPh3>
REM Src: CCDC SARYIV
REM Name: Triphenylphosphane, Triphenylphosphine, Ph3P, C18H15P
SADI C1 C2 C2 C3 C3 C4 C4 C5 C5 C6 C6 C1  C7 C8 C8 C9 C9 C10 C10 C11 =
     C11 C12 C12 C7  C13 C14 C14 C15 C15 C16 C16 C17 C17 C18 C18 C13
SADI P1 C1 P1 C7 P1 C13
SADI 0.04 C1 C3 C1 C5 C5 C3 C4 C2 C4 C6 C2 C6  C7 C9 C7 C11 C9 C11 = 
     C10 C8 C10 C12 C8 C12  C13 C15 C13 C17 C15 C17 C16 C14 C16 C18 C14 C18
SADI 0.04 P1 C14 P1 C18 P1 C12 P1 C8 P1 C2 P1 C6
FLAT C1 > C6 P1
FLAT C7 > C12 P1
FLAT C13 > C18 P1
SIMU P1 > C18
RIGU P1 > C18
RESI PPh3
FRAG 17 12.1586 12.6802 19.525 90 103.689 90
P1      4  0.327250  0.460100  0.117750  
C1      1  0.289340  0.444870  0.202520  
C2      1  0.210780  0.365990  0.207490  
C3      1  0.178260  0.349620  0.270790  
C4      1  0.224160  0.412060  0.328940  
C5      1  0.302600  0.490380  0.324790  
C6      1  0.334960  0.507130  0.261630  
C7      1  0.371650  0.599020  0.118210  
C8      1  0.287470  0.676840  0.101570  
C9      1  0.316760  0.782910  0.099800  
C10     1  0.430480  0.812870  0.114240  
C11     1  0.514290  0.736090  0.131470  
C12     1  0.485190  0.630110  0.133560  
C13     1  0.460960  0.388280  0.127870  
C14     1  0.493840  0.359180  0.066390  
C15     1  0.594870  0.304990  0.070110  
C16     1  0.663740  0.278650  0.135730  
C17     1  0.631220  0.305780  0.197140  
C18     1  0.530730  0.361180  0.193460  
</PPh3> 

<Quinaldine>
REM Src: Gaussian03, b3lyp/6-31+G(d), Ilia A. Guzei
REM: Name: Quinaldine, C10H9N
RESI quin
SADI C2 C3 C3 C4 C4 C5 C5 C10 C5 C6 C6 C7 C7 C8 C8 C9 C9 C10
SADI N11 C2 N11 C10
SADI C2 C4 C4 C10 C3 C5
SADI C3 N11 N11 C5
SADI C6 C8 C6 C10 C9 C5 C9 C7 C8 C6 C8 C10 C5 C7
DFIX 1.511 C1 C2
FLAT C1 > C10
RIGU C1 > C10
SIMU C1 > C10
FRAG 17 1 1 1 90 90 90
C1  6  0.004068 0.000000 -0.004296
C2  6  0.005574 0.000000  1.506233
C3  6  1.232737 0.000000  2.232169
C4  6  1.207339 0.000000  3.607130
C5  6 -0.039155 0.000000  4.283401
C6  6 -0.166327 0.000000  5.698669
C7  6 -1.412439 0.000000  6.288002
C8  6 -2.582500 0.000000  5.484768
C9  6 -2.489973 0.000000  4.109117
C10 6 -1.219145 0.000000  3.471863
N11 7 -1.172349 0.000000  2.107931
</Quinaldine>


<acetate>
rem Src: b3lyp/6-31+G(d), Ilia A. Guzei
rem Name: Acetate anion, C2H3O2-
RESI OAC
DFIX O1 C3 1.2623
DFIX O2 C3 1.2623
DFIX C3 C4 1.5633
DFIX O1 O2 2.2755
DFIX O1 C4 2.3970
DFIX O2 C4 2.3970
FLAT O1 > C4
SIMU O1 > C4
RIGU O1 > C4
FRAG 17 1 1 1 90 90 90
O1 8 -0.047364   -0.011223    -0.082683
O2 8 -0.047364   -0.011223     2.192793
C3 6  0.498976    0.008015     1.055055
C4 6  2.062240    0.018137     1.055055
</acetate>


<dmpz>
REM Name: Dimethylpyrazolato anion, [C5H6N]-, pz*
REM Src: pbe1pbe/6-311+G(d), Ilia A. Guzei
RESI CBZ
DFIX C4 C1 1.4951
DFIX C2 C3 1.4023
DFIX C2 C1 1.4021
DFIX C3 C5 1.4950
DFIX C3 N2 1.3421
DFIX N2 N1 1.3514
DFIX C1 N1 1.3422
DANG N1 C3 2.1843
DANG N1 C4 2.4643
DANG N1 C2 2.2488
DANG N2 C5 2.4641
DANG N2 C2 2.2488
DANG N2 C1 2.1843
DANG C1 C3 2.1975
DANG C2 C5 2.6205
DANG C2 C4 2.6206
RIGU N1 > C5
SIMU N1 > C5
FLAT N1 > C5
FRAG 17 1 1 1 90 90 90
N1  3 0.000000   -0.675725    1.201457
N2  3 0.000000    0.675725    1.201457
C1  1 0.000000   -1.098793   -0.072305
C2  1 0.000000    0.000000   -0.943507
C3  1 0.000000    1.098793   -0.072305
C4  1 0.000000   -2.560546   -0.385972
C5  1 0.000000    2.560546   -0.385972
</dmpz>


<Bipyridine>
rem Src: CCDC DOCYEB
REM Name: 2,2'-Bipyridine, C10H8N2, bipy
RESI BIP
SADI N1 C1 N1 C5 N2 C6 N2 C10
SADI C2 C3 C3 C4 C4 C5 C6 C7 C7 C8 C8 C9 C9 C10
DFIX 1.485 C5 C6
SADI 0.04 N1 C4 N1 C2 N2 C7 N2 C9
SADI 0.04 C1 C5 C1 C3 C2 C4 C3 C5 C6 C10 C6 C8 C7 C9
FLAT N1 > C10
SIMU N1 > C10
RIGU N1 > C10
FRAG 17  7.221 15.822 16.582 90 98.718 90
N1      3  0.963000  0.007020  0.661360  1.000000 0.05000
N2      3  0.771900  0.114320  0.559680  1.000000 0.05000
C1      1  1.057800 -0.045020  0.716750  1.000000 0.05000
C2      1  1.067700 -0.131630  0.705450  1.000000 0.05000
C3      1  0.977400 -0.166380  0.633190  1.000000 0.05000
C4      1  0.882200 -0.113040  0.574510  1.000000 0.05000
C5      1  0.877700 -0.026780  0.590600  1.000000 0.05000
C6      1  0.776200  0.034620  0.532150  1.000000 0.05000
C7      1  0.688100  0.011390  0.454480  1.000000 0.05000
C8      1  0.591100  0.072380  0.404530  1.000000 0.05000
C9      1  0.584000  0.154350  0.433810  1.000000 0.05000
C10     1  0.676400  0.172740  0.511330  1.000000 0.05000
</Bipyridine>


<Pyrazole>
REM Src: Gaussian03, pbe1pbe/6-311+G(d), Ilia A. Guzei
REM Name: Pyrazole, C3H4N2
RESI pyra
SADI C1 C2 C2 C3
SADI C1 N1 C3 N2
SADI C1 N2 C3 N1
RIGU C1 > N2
SIMU C1 > N2
FRAG 17  1  1  1  90  90  90
C1  1 -0.633822 -0.969049 0.000000
C2  1  0.742382 -0.957798 0.000000
C3  2  1.083183  0.402805 0.000000
N1  3 -1.014593  0.325538 0.000000
N2  3  0.007233  1.178904 0.000000
</Pyrazole>


<Pyrene>
REM Src: Gaussian03,  b3lyp/6-311+G(d), Ilia A. Guzei
rem Name: Pyrene, C16H10
RESI pyrb
SADI C1 C2 C2 C3 C3 C3A C3A C4 C4 C5 C5 C5A C5A C6 C6 C7 C7 C8 C8 C8A C8A C9 =
  C9 C10 C10 C10A C10A C1 C10A C10B C10B C3A C10B C10C C10C C5A C10C C8A
SADI 0.04 C1 C3 C1 C10B C3A C2 C3A C10A C3 C10B C2 C10A C4 C5A C4 C10B C10C C5 C5 C3A =
  C3A C10C C5A C10B C5A C7 C5A C8A C7 C8A C6 C8 C6 C10C C8 C10C C9 C10A C9 C10C =
  C10A C10C C10 C10B C8A C10B C8A C10
SIMU C1 > C10c
RIGU C1 > C10c
FLAT C1 > C10c
FRAG 17  1  1  1  90  90  90
C1   1 -2.830028 -1.209088 0.000000
C2   1 -3.520007  0.000000 0.000000
C3   1 -2.830028  1.209088 0.000000
C3a  1 -1.427766  1.234552 0.000000
C4   1 -0.679679  2.461024 0.000000
C5   1  0.679679  2.461024 0.000000
C5a  1  1.427766  1.234552 0.000000
C6   1  2.830028  1.209088 0.000000
C7   1  3.520007  0.000000 0.000000
C8   1  2.830028 -1.209088 0.000000
C8a  1  1.427766 -1.234552 0.000000
C9   1  0.679679 -2.461024 0.000000
C10  1 -0.679679 -2.461024 0.000000
C10a 1 -1.427766 -1.234552 0.000000
C10b 1 -0.712711  0.000000 0.000000
C10c 1  0.712711  0.000000 0.000000
</Pyrene>




<Pentafl>
REM Src: CSD search among high quality structures, Ilia A. Guzei
REM Name: Pentafluorophenyl, -C6F5
REM from a D6h-symmetrized geometry of C6F6
RESI pefl
SADI 0.02  C2 C3  C1 C2  C3 C4  C1 C6  C4 C5  C5 C6
SADI 0.04  C4 C6  C3 C5  C2 C4  C1 C5  C1 C3  C2 C6
SADI 0.02 C2 F5  C3 F4  C4 F3  C5 F2  C6 F1
SADI 0.04 C1 F1 C5 F1 C6 F2 C4 F2 C5 F3 C3 F3 C4 F4 C2 F4 C1 F5 C3 F5
FLAT C1 > F2
SIMU C1 > F2
RIGU C1 > F2
FRAG 17 1 1 1  90 90 90
C1  1   0.000000  1.394954 0.000000
C2  1   1.208066  0.697477 0.000000
C3  1   1.208066 -0.697477 0.000000
C4  1   0.000000 -1.394954 0.000000
C5  1  -1.208066 -0.697477 0.000000
C6  1  -1.208066  0.697477 0.000000
F3  1   0.000000 -2.745111 0.000000
F4  1   2.377336 -1.372555 0.000000
F5  1   2.377336  1.372555 0.000000
F1  1  -2.377336  1.372555 0.000000
F2  1  -2.377336 -1.372555 0.000000
</Pentafl>


<PFAnion>
RESI AlPF
REM Name: [Al{OC(CF3)3}4]- PF-Anion
REM Source: P. J. Malinowski, Freiburg
DFIX 1.72 0.03 Al1 O1 Al1 O2 Al1 O3 Al1 O4
SADI 0.04 O1 O2 O1 O3 O1 O4 O2 O3 O2 O4 O3 O4
SADI 0.05 Al1 C1 Al1 C5 Al1 C9 Al1 C13
DFIX 1.359 0.03 O1 C1 O2 C5 O3 c9 o4 c13
SADI 0.04 O1 C2 O1 C3 O1 C4  O2 C6 O2 C7 O2 C8  O3 c10 O3 C11 O3 C12  O4 C14 O4 C15 O4 C16
SADI C1 C2 C1 C3 C1 C4  C5 C6 C5 C7 C5 C8  C9 C10 C9 C11 C9 C12  C13 C14 C13 C15 C13 C16
SADI 0.04 C2 C3 C2 C4 C3 C4  C6 C7 C6 C8 C7 C8  C10 C11 C10 C12 C11 C12  C14 C15 C14 C16 C15 C16
SADI C2 F1 C2 F2 C2 F3  C3 F4 C3 F5 C3 F6  C4 F7 C4 F8 C4 F9  C6 F10 C6 F11 C6 F12 =
   C7 F13 C7 F14 C7 F15  C8 F16 C8 F17 C8 F18  C10 F19 C10 F20 C10 F21  C11 F22 C11 F23 C11 F24 =
   C12 F25 C12 F26 C12 F27  C14 F28 C14 F29 C14 F30  C15 F31 C15 F32 C15 F33 =
   C16 F34 C16 F35 C16 F36
SADI 0.04 F1 F2 F2 F3 F3 F2  F4 F5 F4 F6 F6 F5  F7 F8 F7 F9 F9 F8 =
   F10 F11 F10 F12 F12 F11  F13 F14 F14 F15 F15 F14  F16 F17 F17 F18 F18 F17
SIMU Al1 > C16
RIGU Al1 > C16
FRAG 17 9.4620  13.6925  13.6839   89.907   90.021   89.967
Al1   4   1.00003   -0.24999   0.24991
O1    2   0.89982   -0.16394   0.30981
C1    1   0.82344   -0.08068   0.30489
C2    1   0.70803   -0.08678   0.22317
F1    3   0.76039   -0.12578   0.14352
F2    3   0.65458   -0.00077   0.19964
F3    3   0.60136   -0.14420   0.25378
C3    1   0.75104   -0.06441   0.40583
F4    3   0.84220   -0.03373   0.47124
F5    3   0.64763    0.00199   0.40068
F6    3   0.69647   -0.14768   0.43829
C4    1   0.92076    0.00761   0.28224
F7    3   1.03912    0.00061   0.33222
F8    3   0.95606    0.00961   0.18765
F9    3   0.86098    0.09309   0.30265
O2    2   1.10084   -0.19017   0.16392
C5    1   1.17710   -0.19489   0.08059
C6    1   1.24979   -0.09469   0.06457
F10   3   1.35267   -0.09964  -0.00219
F11   3   1.15822   -0.02854   0.03388
F12   3   1.30359   -0.06129   0.14775
C7    1   1.07893   -0.21746  -0.00736
F13   3   1.04406   -0.31273  -0.00996
F14   3   1.13910   -0.19743  -0.09343
F15   3   0.96103   -0.16779  -0.00123
C8    1   1.29159   -0.27688   0.08693
F16   3   1.34556   -0.30038   0.00011
F17   3   1.39870   -0.24629   0.14414
F18   3   1.23917   -0.35636   0.12591
O3    2   0.89912   -0.33599   0.18953
C9    1   0.82350   -0.41942   0.19462
C10   1   0.75035   -0.43562   0.09451
F19   3   0.84106   -0.46611   0.02811
F20   3   0.69563   -0.35186   0.06198
F21   3   0.64682   -0.50132   0.09984
C11   1   0.92081   -0.50768   0.21770
F22   3   1.03851   -0.50096   0.16689
F23   3   0.95612   -0.51042   0.31195
F24   3   0.86030   -0.59299   0.19724
C12   1   0.70780   -0.41321   0.27720
F25   3   0.65440   -0.49974   0.29975
F26   3   0.60165   -0.35545   0.24678
F27   3   0.76048   -0.37476   0.35585
O4    2   1.10011   -0.31016   0.33563
C14   1   1.29276   -0.22284   0.41335
C13   1   1.17691   -0.30561   0.41945
F28   3   1.23934   -0.14395   0.37421
F29   3   1.39836   -0.25309   0.35540
F30   3   1.34619   -0.20046   0.49926
C15   1   1.07947   -0.28250   0.50778
F31   3   0.96136   -0.33238   0.50142
F32   3   1.04419   -0.18827   0.51000
F33   3   1.13950   -0.30272   0.59288
C16   1   1.24936   -0.40511   0.43566
F34   3   1.35264   -0.40040   0.50181
F35   3   1.15795   -0.47180   0.46603
F36   3   1.30411   -0.43804   0.35185
</PFAnion>


<hfipO>
REM Src: Turbomole, B3LYP/def2-TZVPP
rem Name: Hexafluoroisopropanol, C3H2F6O, hfip
RESI HFIP
SADI C2 F1 C2 F2 C2 F3  C3 F4 C3 F5 C3 F6
SADI C1 C2 C1 C3
DFIX 1.31 O1 C1
DFIX 2.527 0.03 C2 C3
SADI O1 C2 O1 C3
SADI 0.04 C1 F1 C1 F2 C1 F3 C1 F4 C1 F5 C1 F6
SIMU O1 > F6
RIGU O1 > F6
FRAG 17 1  1  1  90  90  90
O1    1      1.56146       -0.98947        0.00000
C1    2      0.30418       -0.62025        0.00000
C2    2     -0.07823        0.19052        1.26375
C3    3     -0.07823        0.19052       -1.26375
F1    3      0.15328       -0.54900        2.36570
F2    3     -1.39094        0.54896        1.34009
F3    3      0.62402        1.32758        1.41073
F4    3      0.15328       -0.54900       -2.36570
F5    3      0.62402        1.32758       -1.41073
F6    3     -1.39094        0.54896       -1.34009
</hfipO>

<OCH2CF3>
rem Src: TURBOMOLE V6.0  B-P86/def-SV(P)
rem Name: Trifluoroethanol, OCH2CF3-
RESI OCCF
DFIX 1.376 O1 C1
DFIX 1.530 C1 C2
DANG 2.415 O1 C2
SADI F1 C2 F2 C2 F3 C2
SADI 0.04 F1 F2 F2 F3 F3 F1
SADI 0.04 F1 C1 F2 C1 F3 C1
SIMU O1 > F3
RIGU O1 > F3
FRAG 17  1  1  1  90  90  90
O1   2      -0.75623        1.65208       -0.33478
C1   1      -2.10507        1.91209       -0.42225
C2   1      -2.58835        1.99186       -1.87166
F1   3      -1.95714        2.96525       -2.57811
F2   3      -3.92641        2.28171       -1.91217
F3   3      -2.41301        0.83156       -2.54596
</OCH2CF3>


<Ethanol>
REM Src: Turbomole, B3LYP/def2-TZVPP
rem Name: Ethanol, C2H6O
RESI ETH
DFIX 1.510 C1 C2
DFIX 1.425 C1 O1
DFIX 2.366 0.03 C2 O1
SIMU O1 > C2
RIGU O1 > C2
FRAG 17  1  1  1  90  90  90
O1   2   -0.97071       -1.14465        0.00000
C1   1   -0.50625        0.20248        0.00000
C2   1    1.00302        0.15990        0.00000
</Ethanol>

<pyridine>
rem Name: Pyridine, C5H5N
rem Src: CCDC EPEXED
RESI PYRI
SADI N1 C1 N1 C5
SADI C1 C2 C2 C3 C3 C4 C4 C5
SADI 0.04 N1 C4 N1 C2
SADI 0.04 C3 C5 C3 C1 C4 C2 C5 C1
FLAT N1 > C5
SIMU N1 > C5
RIGU N1 > C5
FRAG 17 15.039 12.809 14.218 90 90 90
N1      3  0.125940  0.725600  0.985470  1.000000 0.05000
C1      1  0.110960  0.633200  0.946190  1.000000 0.05000
C2      1  0.105800  0.616000  0.850650  1.000000 0.05000
C3      1  0.117900  0.698900  0.791270  1.000000 0.05000
C4      1  0.132850  0.795200  0.829330  1.000000 0.05000
C5      1  0.136070  0.805400  0.926080  1.000000 0.05000
</pyridine>


<propane>
rem Name: Propane, C3H8
REM Src: CCDC 103186
RESI PROP
SADI C1 C2 C2 C3
DANG 2.540 C1 C3
SIMU C1 > C3
RIGU C1 > C3
FRAG 17 4.148 12.612 6.977 90 91.28 90
C1      1  0.217300  0.948250  0.219960  1.000000 0.05000
C2      1  0.308500  0.875410  0.388090  1.000000 0.05000
C3      1  0.230600  0.759140  0.344940  1.000000 0.05000
</propane>


<pentane>
rem Src: CCDC 102188
REM: Name: n-Pentane, C5H10
RESI PEN
SADI C1 C2 C2 C3 C3 C4 C4 C5
SADI 0.04 C1 C3 C3 C5 C2 C4
SIMU C1 > C5
RIGU C1 > C5
FRAG 17  4.1357 9.025 14.816 90 90 90
C1    1   0.196000   0.368860   0.087800   1.00000   0.05000
C2    1   0.094100   0.461660   0.168320   1.00000   0.05000
C3    1   0.000000   0.369650   0.250000   0.50000   0.05000
C4    1  -0.094100   0.461660   0.331680   1.00000   0.05000
C5    1  -0.196000   0.368860   0.412200   1.00000   0.05000
</pentane>



<Hexane>
rem Src: CCDC 103189
REM: Name: n-Hexane, C6H14
RESI HEX
SADI C1 C2 C2 C3 C3 C4 C4 C5 C5 C6
SADI 0.04 C1 C3 C3 C5 C2 C4 C4 C6
SIMU C1 > C6
RIGU C1 > C6
FRAG 17 4.1309 4.6963 8.539 83.4 87.265 75.172
C1    1   0.223300   0.731400   0.152630   1.00000   0.05000
C2    1   0.371900   0.492880   0.283660   1.00000   0.05000
C3    1   0.427500   0.618430   0.433610   1.00000   0.05000
C4    1   0.572500   0.381570   0.566390   1.00000   0.05000
C5    1   0.628100   0.507120   0.716340   1.00000   0.05000
C6    1   0.776700   0.268600   0.847370   1.00000   0.05000
</Hexane>


<Heptane>
rem Src: CCDC 103190
REM Name: n-Heptane, C7H16
RESI HEPT
SADI C1 C2 C2 C3 C3 C4 C4 C5 C5 C6 C6 C7
SADI C1 C3 C3 C5 C2 C4 C4 C6 C5 C7
SIMU C1 > C7
RIGU C1 > C7
FRAG 17 4.116 4.686 20.348 78.11 81.79 74.25
C1      1  1.160300  0.293000  0.427980  1.000000 0.05000
C2      1  1.128400  0.175600  0.365640  1.000000 0.05000
C3      1  1.010900  0.427100  0.306980  1.000000 0.05000
C4      1  0.977700  0.314500  0.243990  1.000000 0.05000
C5      1  0.857800  0.566400  0.185820  1.000000 0.05000
C6      1  0.826000  0.455900  0.122430  1.000000 0.05000
C7      1  0.700000  0.710200  0.065280  1.000000 0.05000
</Heptane>


<Octane>
REM Name: n-Octane, C8H18
rem Src: CCDC 103191
RESI OCT1
SADI C1 C2  C2 C3  C3 C4  C4 C5  C5 C6  C6 C7  C7 C8
SADI 0.04 C1 C3  C3 C5  C5 C7  C2 C4  C4 C6  C6 C8
SIMU C1 > C8
RIGU C1 > C8
FRAG  17  4.1947 4.7518 10.998 85.11 83.77 74.26
C1    1   0.800900   0.253400   0.879350   1.00000   0.05000
C2    1   0.673400   0.479200   0.777760   1.00000   0.05000
C3    1   0.640600   0.343900   0.661230   1.00000   0.05000
C4    1   0.516400   0.567900   0.558310   1.00000   0.05000
C5    1   0.483600   0.432100   0.441690   1.00000   0.05000
C6    1   0.359400   0.656100   0.338770   1.00000   0.05000
C7    1   0.326600   0.520800   0.222240   1.00000   0.05000
C8    1   0.199100   0.746600   0.120650   1.00000   0.05000
</Octane>


<Nonane>
REM Name: n-Nonane, C9H20
rem Src: CCDC 103192
RESI OCT1
SADI C1 C2  C2 C3  C3 C4  C4 C5  C5 C6  C6 C7  C7 C8  C8 C9
SADI 0.04 C1 C3  C3 C5  C5 C7 C7 C9  C2 C4  C4 C6  C6 C8
SIMU C1 > C9
RIGU C1 > C9
FRAG  17  4.118 4.674 24.693 86.27 87.8 74.52
C1      1  0.621800  0.718400  0.057990  1.000000 0.05000
C2      1  0.552600  0.536300  0.108040  1.000000 0.05000
C3      1  0.405900  0.726000  0.155410  1.000000 0.05000
C4      1  0.332500  0.548500  0.205990  1.000000 0.05000
C5      1  0.186600  0.740500  0.253100  1.000000 0.05000
C6      1  0.113700  0.564100  0.303890  1.000000 0.05000
C7      1 -0.035300  0.757000  0.350670  1.000000 0.05000
C8      1 -0.106700  0.581700  0.401510  1.000000 0.05000
C9      1 -0.262100  0.777900  0.447520  1.000000 0.05000
</Nonane>

<Eicosan>
REM Name: n-Eicosan, C20H42 
REM Src: Nils Trapp, ETH Zurich
RESI EICO
SADI C1 C2 C2 C3 C3 C4 C4 C5 C5 C6 C6 C7 C7 C8 C8 C9 C9 C10 C10 C11 C11 C12 =
     C12 C13 C13 C14 C14 C15 C15 C16 C16 C17 C17 C18 C18 C19 C19 C20
SADI 0.04 C1 C3 C3 C5 C5 C7 C7 C9 C9 C11 C11 C13 C13 C15 C15 C17 C17 C19 = 
     C2 C4 C4 C6 C6 C8 C8 C10 C10 C12 C12 C14 C14 C16 C16 C18 C18 C20 
FRAG 17 4.1322 4.6758 25.5064 90.389 94.221 104.848
C1    1   0.793376   0.770452   0.050860  11.00000   0.02592 
C2    1   0.667420   0.563458   0.095492  11.00000   0.02178 
C3    1   0.624318   0.729687   0.145104  11.00000   0.01890 
C4    1   0.506644   0.525671   0.190378  11.00000   0.01828 
C5    1   0.459880   0.692521   0.239832  11.00000   0.01752 
C6    1   0.345768   0.489312   0.285426  11.00000   0.01846 
C7    1   0.298215   0.656001   0.334775  11.00000   0.01775 
C8    1   0.185683   0.453073   0.380380  11.00000   0.01721 
C9    1   0.136547   0.619755   0.429680  11.00000   0.01758 
C10   1   0.024541   0.416618   0.475374  11.00000   0.01755 
C11   1  -0.024541   0.583382   0.524626  11.00000   0.01755 
C12   1  -0.136547   0.380245   0.570320  11.00000   0.01758 
C13   1  -0.185683   0.546927   0.619620  11.00000   0.01721 
C14   1  -0.298215   0.343999   0.665225  11.00000   0.01775 
C15   1  -0.345768   0.510688   0.714574  11.00000   0.01846 
C16   1  -0.459880   0.307479   0.760168  11.00000   0.01752 
C17   1  -0.506644   0.474329   0.809622  11.00000   0.01828 
C18   1  -0.624318   0.270313   0.854896  11.00000   0.01890 
C19   1  -0.667420   0.436542   0.904508  11.00000   0.02178 
C20   1  -0.793376   0.229548   0.949140  11.00000   0.02592 
</Eicosan>


<THF>
rem Src: Gaussian 03 B3LYP/6-311++G(d,p) Opt
Rem Name: Tetrahydrofurane, thf
RESI THF
SADI 0.02  C1 C2  C2 C3  C3 C4
SADI 0.02  O1 C1  O1 C4
SADI 0.04  O1 C2  O1 C3
SADI 0.04  C2 C4  C1 C3
SIMU O1 > C4
RIGU O1 > C4
FRAG 17 1  1  1  90  90  90
O1    8      -0.000002   -1.251859   -0.000006
C1    6      -1.169782   -0.428968   -0.130825
C2    6      -0.734164    0.995903    0.225049
C3    6       0.734171    0.995898   -0.225052
C4    6       1.169778   -0.428974    0.130832
</THF>



<12-dichlorobenz>
rem Src: pbe1pbe/6-311++G(3df,3pd), Ilia A. Guzei
REM Name: 1,2-Dichlorobenzene, C6H4Cl2
RESI ClBE
SADI 0.02  C1 Cl1  C2 Cl2
SADI 0.02  C1 C6  C5 C6  C1 C2  C4 C5  C3 C4  C2 C3
SADI 0.04  C1 Cl2  C3 Cl2  C2 Cl1  C6 Cl1
SADI 0.04  C4 C6  C3 C5  C2 C4  C1 C3  C2 C6  C1 C5
FLAT Cl1 > C6
SIMU Cl1 > C6
RIGU Cl1 > C6
FRAG 17 1 1 1 90 90 90
Cl1 5 -1.523470 0.000000  2.201659
Cl2 5  1.222433 0.000000  3.838354
C1  1  0.004668 0.000000  1.388157
C2  1  1.211032 0.000000  2.107210
C3  1  2.426801 0.000000  1.418236
C4  1  2.447679 0.000000  0.025008
C5  1  1.247880 0.000000 -0.690132
C6  1  0.032329 0.000000 -0.008988
</12-dichlorobenz>


<12-Difluorobenz>
rem Name: 1,2-Difluorobenzene, C6H4F2
rem Src: Gaussian 03 B3LYP/6-31+G(d,p) Opt
RESI FBEN
SADI 0.02  C1 F1  C2 F2
SADI 0.02  C1 C6  C5 C6  C1 C2  C4 C5  C3 C4  C2 C3
SADI 0.04  C1 F2  C3 F2  C2 F1  C6 F1
SADI 0.04  C4 C6  C3 C5  C2 C4  C1 C3  C2 C6  C1 C5
FLAT C1 > F2
SIMU C1 > F2
RIGU C1 > F2
FRAG 17 1 1 1 90 90 90
C1     6     0.533697    0.696785   -0.000001
C2     6     0.533729   -0.696788    0.000000
C3     6    -0.661804   -1.403751    0.000000
C4     6    -1.869488   -0.698847    0.000000
C5     6    -1.869518    0.698801    0.000000
C6     6    -0.661846    1.403734    0.000000
F1     9     1.713672    1.355435    0.000000
F2     9     1.713722   -1.355385    0.000000
</12-Difluorobenz>


<Napht>
rem Src: b3lyp/6-311+G(d), Ilia A. Guzei
REM: Name: Naphthalene, C10H8
RESI NAPH
SADI 0.0200  C2 C3  C1 C2  C3 C4  C4 C4A  C1 C8A  C4A C5  C5 C6  C6 C7  C8 C8A =
     C7 C8 C4A C8A
SADI 0.0400  C5 C7  C4A C6  C6 C8  C4 C5  C7 C8A  C3 C4A  C2 C4  C1 C8  C1 C3 =
     C2 C8A
SADI 0.0400  C1 C4A  C4 C8A 
SADI 0.0400  C5 C8A  C4A C8 
FLAT C1 > C8a
SIMU C1 > C8a
RIGU C1 > C8a
FRAG 17 1 1 1 90 90 90
C1  1 0.000000  1.400530  1.243880
C2  1 0.000000  0.707569  2.430888
C3  1 0.000000 -0.707569  2.430888
C4  1 0.000000 -1.400530  1.243880
C4a 1 0.000000 -0.715982  0.000000
C5  1 0.000000 -1.400530 -1.243880
C6  1 0.000000 -0.707569 -2.430888
C7  1 0.000000  0.707569 -2.430888
C8  1 0.000000  1.400530 -1.243880
C8a 1 0.000000  0.715982  0.000000
</Napht>


<Acetonitrile>
rem Src: pbe1pbe/6-311++G(3df,3pd), Ilia A. Guzei
rem Name: Acetonitrile, C2H3N, NMe
RESI MeCN
DFIX 0.01 1.162 C1 N1
DFIX 0.01 1.453 C1 N1
DFIX 0.01 2.616 C2 N1
SIMU N1 > C2
RIGU N1 > C2
FRAG 17 1 1 1 90 90 90
N1   3  0.000000  0.000000  1.439011
C1   1  0.000000  0.000000  0.276653
C2   1  0.000000  0.000000 -1.176783
</Acetonitrile>


<NSiMe3>
rem Src: Daniel Kratzert, Freiburg
REM Name: Trimethylsilyl-N, C3H10OSi, N-TMS
RESI NSI
SADI Si1 C1 Si1 C2 Si1 C3
SADI 0.03 C1 C2 C2 C3 C3 C1
SADI 0.04 N1 C1 N1 C2 N1 C3
SIMU N1 > C3
RIGU N1 > C3
FRAG 17 21.7069   9.2762  16.9850  90.000 110.554  90.000
N1    3    0.142398    0.343635    0.192072
SI1   4    0.088953    0.293670    0.244601
C1    1    0.092822    0.420803    0.331026
C2    1    0.110847    0.109215    0.288825
C3    1    0.001505    0.299282    0.171842
</NSiMe3>



<Hexa>
rem Src: Daniel Kratzert, Freiburg
REM Name: Hexamethyldisilazane, C6H19NSi2
RESI HEXA
SADI N1 Si1 N1 Si2
SADI Si1 C1 Si1 C2 Si1 C3  Si2 C4 Si2 C5 Si2 C6
SADI 0.04 C1 C2 C2 C3 C3 C1  C4 C5 C5 C6 C6 C4
SADI 0.04 N1 C1 N1 C2 N1 C3  N1 C4 N1 C5 N1 C6
DFIX 3.054 0.04 Si1 Si2
SIMU N1 > C6
RIGU N1 > C6
FRAG 17 21.7069   9.2762  16.9850  90.000 110.554  90.000
N1    3    0.142398    0.343635    0.192072
SI1   4    0.088953    0.293670    0.244601
C1    1    0.092822    0.420803    0.331026
C2    1    0.110847    0.109215    0.288825
C3    1    0.001505    0.299282    0.171842
SI2   4    0.136576    0.259830    0.096411
C4    1    0.114377    0.397578    0.011501
C5    1    0.071922    0.117330    0.061122
C6    1    0.214656    0.164146    0.107732
</Hexa>

<NMe4+>
REM Src: CCDC FOZROC
REM Name: Tetramethylammonium kation, Me4N+, C4H9N+
RESI META
SADI C1 N1 C1 N1 C3 N1 C4 N1
SADI 0.04 C1 C3  C1 C2  C1 C4  C2 C3  C2 C4  C3 C4 
SIMU N1 > C4
RIGU N1 > C4
FRAG 17 12.917 12.917 9.3184 90 90 90
N1    5   0.000000   0.000000   0.000000   0.25000   0.05000
C1    1   0.094050   0.015600   0.092270   1.00000   0.05000
C2    1   0.015600  -0.094050  -0.092270   1.00000   0.05000
C3    1  -0.094050  -0.015600   0.092270   1.00000   0.05000
C4    1  -0.015600   0.094050  -0.092270   1.00000   0.05000
</NMe4+>


<NEt4+>
rem Src: CCDC ABENRE
rem Name: Tetraethylammonium, C8H20N+, NEt4+, et4N+
RESI NET4
SADI N1 C1 N1 C7 N1 C3 N1 C5
SADI C1 C2 C3 C4 C5 C6 C7 C8
SADI 0.04 C1 C3 C3 C5 C5 C7 C7 C1
SADI 0.08 C2 C4 C4 C6 C6 C8
SADI 0.04 N1 C2 N1 C4 N1 C6 N1 C8
SIMU N1 > C8
RIGU N1 > C8
rem Might be activated for more stability:
rem FLAT 0.2 N1 C3 C4 C7 C8
rem FLAT 0.2 N1 C1 C2 C5 C6
FRAG 17 16.41 13.81 16.91 90 90 90
N1    1  0.425700  0.261500  0.002100
C1    2  0.452600  0.154300 -0.002600
C2    2  0.435500  0.094100  0.073900
C3    2  0.333100  0.265000  0.017800
C4    2  0.280700  0.211700 -0.041200
C5    2  0.448800  0.305400 -0.078300
C6    2  0.425700  0.413400 -0.084300
C7    2  0.464300  0.310400  0.072100
C8    2  0.554900  0.316400  0.069100
</NEt4+>

<NBt4+>
REM Name: Tetrabuthylammonium, C16H36N+, Nbt4+, bt4N+
REM Src: John Bacsa, Emory
SADI  0.02 N1 C1 N1 C2 N1 C3 N1 C4
SADI  0.02 C1 C5 C5 C9 C9 C13 C4 C8 C8 C12 C12 C16 C3 C7 C7 C11 C11 C15 C2 C6 =
  C6 C10 C10 C14
SADI  0.04 C1 C9 C5 C13 C4 C12 C8 C16 C3 C11 C7 C15 C2 C10 C6 C14
SADI  0.04 C1 C4 C4 C3 C3 C2
SIMU  N1 > C16
RIGU  N1 > C16
RESI NBT4
FRAG 17 1 1 1 90 90 90
N1    1    3.0343   7.5668  12.3546 
C1    1    2.2297   6.6612  11.4381 
C2    1    3.9419   8.4833  11.5563 
C3    1    3.8391   6.6612  13.2711 
C4    1    2.1269   8.4833  13.1528 
C5    1    1.2766   7.3780  10.5002 
C6    1    5.0591   7.8328  10.7596 
C7    1    4.7920   7.3780  14.2090 
C8    1    1.0095   7.8328  13.9496 
C9    1    0.5204   6.3513   9.6638 
C10   1    5.8359   8.9170  10.0174 
C11   1    5.5483   6.3513  15.0454 
C12   1    0.2328   8.9170  14.6918 
C13   1   -0.3417   6.9502   8.6069 
C14   1    6.9845   8.3986   9.2173 
C15   1    6.4104   6.9502  16.1023 
C16   1   -0.9158   8.3986  15.4920
</NBt4+>


<Supersilyle>
rem Name: Tris(trimethylsilyl)silane, [(CH3)3Si]3Si, Supersilyle
rem Src: CCDC CEYMID
RESI SUP
SADI Si1 C1 Si1 C2 Si1 C3 Si2 C4 Si2 C5 Si2 C6 Si3 C7 Si3 C8 Si3 C9
SADI Si1 Si4  Si2 Si4 Si3 Si4
SADI 0.04 Si4 C1 Si4 C2 Si4 C3 Si4 C4 Si4 C5 Si4 C6 Si4 C7 Si4 C8 Si4 C9
SADI Si1 Si2  Si2 Si3 Si3 Si1
SADI 0.04 C1 C2 C2 C3 C3 C1 C4 C5 C5 C6 C6 C4 C7 C8 C8 C9 C9 C7
SIMU Si1 > C9
RIGU Si1 > C9
FRAG 17 10.13 17.035 27.695 90 109.02 90
Si1     4  0.499980  0.937620  0.866250
Si2     4  0.803660  0.958810  0.814020
Si3     4  0.500160  0.817460  0.749120
Si4     4  0.644260  0.868600  0.828450
O1      3  0.733080  0.802570  0.872160
C1      1  0.420800  0.867310  0.901230
C2      1  0.603900  1.012600  0.912580
C3      1  0.353800  0.989600  0.816870
C4      1  0.943500  0.982090  0.875480
C5      1  0.711700  1.052070  0.786890
C6      1  0.891800  0.918930  0.768910
C7      1  0.455000  0.902150  0.703630
C8      1  0.580900  0.741030  0.718230
C9      1  0.337300  0.772640  0.755910
</Supersilyle>


<Cp>
rem Src: Gaussian 03 B3LYP/6-31+G(d,p) Opt
rem Name: Cyclopentadienyl, [C5H5]-, Cp
RESI CP
SADI 0.02  C2 C3  C1 C2  C3 C4  C1 C5  C4 C5
SADI 0.04  C3 C5  C2 C4  C1 C4  C1 C3  C2 C5
FLAT C1 > C5
SIMU C1 > C5
RIGU C1 > C5
FRAG 17  1  1  1  90  90  90
C1   1   -0.680944    0.995938  -0.000002
C2   1    0.736784    0.955370   0.000001
C3   1    1.136318   -0.405495   0.000000
C4   1   -0.034498   -1.205965   0.000000
C5   1   -1.157659   -0.339847   0.000001
</Cp>


<Cpstar>
rem Src: Gaussian 03 B3LYP/6-31G(d,p) Opt
rem Name: Pentamethylcyclopentadienyl, [C5Me5]-, Cp*
RESI CPST
SADI C1 C2 C2 C3 C3 C4 C4 C5 C5 C1
SADI 0.04 C1 C3  C2 C4  C3 C5  C5 C2  C1 C4
SADI C1 C10 C2 C9 C3 C8 C4 C7 C5 C6
SADI 0.04 C10 C2 C10 C5 C9 C1 C9 C3 C8 C2 C8 C4 =
 C7 C3 C7 C5 C6 C4 C6 C1
FLAT C1 > C10
SIMU C1 > C10
RIGU C1 > C10
FRAG 17  1  1  1  90  90  90
C1     6    -1.060600   -0.571473   -0.002912
C2     6     0.215982   -1.186741    0.001368
C3     6     1.197057   -0.162068   -0.000321
C4     6     0.524440    1.088178    0.004475
C5     6    -0.871368    0.833295    0.000684
C6     6    -1.960201    1.871332    0.002844
C7     6     1.180461    2.442921   -0.013978
C8     6     2.688028   -0.370618    0.017599
C9     6     0.475656   -2.669197   -0.016235
C10    6    -2.388757   -1.277095    0.008582
</Cpstar>



<TIP>
REM Name: 2,4,6-Triisopropylphenyl, TIP
rem Src: Turbomole, B3LYP/def2-TZVPP
SADI C1 C2 C2 C3 C3 C4 C4 C5 C5 C6 C6 C1
SADI 0.04 C1 C3 C3 C5 C5 C1 C2 C4 C4 C6 C6 C2
SADI C2 C10 C4 C13 C6 C7
SADI C7 C8 C7 C9 C10 C11 C10 C12 C13 C14 C13 C15
SADI 0.04 C8 C9 C11 C12 C14 C15
SADI 0.04 C6 C8 C6 C9 C2 C11 C2 C12 C4 C14 C4 C15
SADI 0.04 C3 C13 C5 C13 C1 C7 C5 C7 C1 C10 C3 C10
FLAT C1 > C6 C7 C10 C13
SIMU C1 > C15
RIGU C1 > C15
RESI TIP2
FRAG  17  1  1  1  90  90  90
C1   1    1.1050  -1.1645   0.0000
C2   1   -0.2120  -1.6193   0.0000
C3   1   -1.2357  -0.6703   0.0000
C4   1   -0.9671   0.6972   0.0000
C5   1    0.3656   1.1132   0.0000
C6   1    1.4154   0.1964   0.0000
C7   1    2.8660   0.6516   0.0000
C8   1    3.2215   1.4460   1.2661
C9   1    3.2215   1.4460  -1.2661
C10  1   -0.5117  -3.1095   0.0000
C11  1   -1.2646  -3.5463   1.2660
C12  1   -1.2646  -3.5463  -1.2660
C13  1   -2.1081   1.7022   0.0000
C14  1   -2.1106   2.5726   1.2661
C15  1   -2.1106   2.5726  -1.2661
</TIP>



<OC(CF3)3>
rem Name: Nonafluoro-tert-butoxy, [(CF3)3CO]-
rem Src: TURBOMOLE V6.0  B-P86/def-SV(P)
RESI CCF3
SADI 0.02 C1 C2 C1 C3 C1 C4
SADI 0.02 F1 C2 F2 C2 F3 C2 F4 C3 F5 C3 F6 C3 F7 C4 F8 C4 F9 C4
SADI 0.04 C2 C3 C3 C4 C2 C4
SADI 0.04 O1 C2 O1 C3 O1 C4
SADI 0.04 F1 F2 F2 F3 F3 F1 F4 F5 F5 F6 F6 F4 F7 F8 F8 F9 F9 F7
DFIX 1.35 O1 C1
# The soft SADI restraint allows the CF3 group to tilt a little:
SADI 0.1 F1 C1 F2 C1 F3 C1 F4 C1 F5 C1 F6 C1 F7 C1 F8 C1 F9 C1
SIMU O1 > F9
RIGU O1 > F9
FRAG 17  1  1  1  90  90  90
O1   -8      -0.01453        1.66590        0.10966
C1   -6      -0.00146        0.26814        0.06351
C2   -6      -1.13341       -0.23247       -0.90730
F1   -9      -2.34661       -0.11273       -0.34544
F2   -9      -0.96254       -1.50665       -1.29080
F3   -9      -1.12263        0.55028       -2.01763
C3   -6       1.40566       -0.23179       -0.43131
F4   -9       2.38529        0.42340        0.20561
F5   -9       1.53256        0.03843       -1.75538
F6   -9       1.57833       -1.55153       -0.25035
C4   -6      -0.27813       -0.21605        1.52795
F7   -9       0.80602       -0.03759        2.30431
F8   -9      -0.58910       -1.52859        1.53460
F9   -9      -1.29323        0.46963        2.06735
</OC(CF3)3>


<PF6>
rem Name: Hexafluorophosphate, PF6
rem Src: Gaussian 03 B3LYP/6-311+G(d,p) Opt
RESI PF6
SADI P1 F1 P1 F2 P1 F3 P1 F4 P1 F5 P1 F6
SADI 0.04 F1 F2 F1 F4 F1 F5 F1 F6 F3 F2 F3 F4 F3 F5 F3 F6 F4 F1 F4 F3 F2 F3 F2 F1  
SADI 0.05 F1 F3 F2 F4 F6 F5
SIMU P1 > F6
RIGU P1 > F6
FRAG 17 1  1  1  90  90  90
P1      6    0.000040    0.000000   -0.000058
F1      5   -1.572128    0.474789    0.110335
F2      5   -0.127880   -0.042017   -1.640210
F3      5    1.572201   -0.474868   -0.110339
F4      5    0.127809    0.042044    1.640306
F5      5    0.470393    1.575477   -0.077012
F6      5   -0.470461   -1.575424    0.077017
</PF6>

<mimme>
REM Src: Gaussian03 b3lyp/6-31+G(d), Ilia A. Guzei
REM Name: (1-methyl-1H-imidazol-2-yl)methanol, C5H8N2O
RESI MIM
DFIX 1.3721  C6   C5
DFIX 1.3847  C6   N7
DFIX 1.5058  C3   C2
DFIX 1.3165  C3   N4
DFIX 1.3774  C3   N7
DFIX 1.4155  O1   C2
DFIX 1.3771  C5   N4
DFIX 1.4552  C8   N7
DANG 2.3810  O1   C3
DANG 2.5206  C2   N4
DANG 2.5215  C2   N7
DANG 2.1460  C3   C5
DANG 2.2131  C3   C6
DANG 2.5504  C3   C8
DANG 2.2295  N4   N7
DANG 2.2596  N4   C6
DANG 2.1965  C5   N7
DANG 2.5204  C6   C8
FLAT O1 > C8
SIMU O1 > C8
RIGU O1 > C8
FRAG 17 1 1 1 90 90 90
O1 8    0.000000  0.000000  0.000000
C2 6    0.000000  1.415461  0.000000
C3 6    1.358331  1.909397 -0.422586
N4 7    2.394752  1.164514 -0.745023
C5 6    3.402934  2.048559 -1.058675
C6 6    2.968311  3.342914 -0.923461
N7 7    1.648917  3.252748 -0.512989
C8 6    0.777670  4.386313 -0.241938
</mimme>


<BF4>
REM Src: Gaussian03 pbe1pbe/6-311+G(3df), Ilia A. Guzei
REM Name: Tetrafluoroborate, [BF4]-
RESI BF4
SIMU B1 > F4
RIGU B1 > F4
SADI B1 F1 B1 F2 B1 F3 B1 F4
SADI 0.04 F1 F2  F2 F3  F3 F4  F4 F1  F2 F4  F1 F3
FRAG 17 1 1 1 90 90 90
B1  5  0.000000  0.000000  0.000000
F1  4  0.809590  0.809590  0.809590
F2  4 -0.809590  0.809590 -0.809590
F3  4  0.809590 -0.809590 -0.809590
F4  4 -0.809590 -0.809590  0.809590
</BF4>

<TFA>
REM Name: Trifluoroacetic acid, C2H1F3O2, TFA
REM Src: Gaussian03 b3lyp/6-31+G(d), Ilia A. Guzei
RESI TFA
SADI C4 F1 C4 F2 C4 F3
SADI 0.04 C5 F1 C5 F2 C5 F3
SADI 0.04 F1 F2 F2 F3 F3 F1
DFIX 1.55 C4 C5
DFIX 1.20 C5 O6
DFIX 1.34 C5 O7
DFIX 2.2707 O6 O7
DFIX 2.4323 C4 O6
DFIX 2.3694 C4 O7
FLAT C4 C5 O6 O7
RIGU F1 > O7
SIMU F1 > O7
FRAG 17 1 1 1 90 90 90
F1 9 0.206794 0.017882 -0.076820
F2 9 -0.158957 -0.030752 2.071766
F3 9 1.888186 0.052982 1.310344
C4 6 0.626685 0.482727 1.103228
C5 6 0.571892 2.032370 1.126534
O6 8 0.198653 2.699294 0.197891
O7 8 0.995400 2.486086 2.313549
</TFA>


<mquinolinol>
REM Src: Gaussian03 b3lyp/6-31+G(d), Ilia A. Guzei
REM Name: 2-Methyl-8-quinolinol, C10H9NO
RESI MQUI
DFIX 1.4206  C6   C5
DFIX 1.3807  C6   C7
DFIX 1.4239  C3   C2
DFIX 1.3777  C3   C4
DFIX 1.3600  N11  C10
DFIX 1.3247  N11  C2
DFIX 1.3549  O12  C9
DFIX 1.4305  C9   C10
DFIX 1.3808  C9   C8
DFIX 1.4257  C5   C10
DFIX 1.4184  C5   C4
DFIX 1.5092  C2   C1
DFIX 1.4165  C8   C7
DANG 2.5557  C1   C3
DANG 2.4236  C1   N11
DANG 2.4261  C2   C4
DANG 2.3149  C2   C10
DANG 2.3974  C3   N11
DANG 2.4207  C3   C5
DANG 2.5157  C4   C6
DANG 2.4097  C4   C10
DANG 2.4204  C5   C7
DANG 2.4682  C5   C9
DANG 2.4569  C5   N11
DANG 2.4573  C6   C10
DANG 2.4426  C6   C8
DANG 2.4209  C7   C9
DANG 2.4347  C8   C10
DANG 2.3860  C8   O12
DANG 2.3756  C9   N11
DANG 2.3952  C10  O12
FLAT C1 > O12
SIMU C1 > O12
RIGU C1 > O12
FRAG 17 1 1 1 90 90 90
C1  6  0.010009  0.000000 -0.005503
C2  6  0.006818  0.000000  1.503664
C3  6  1.223257  0.000000  2.243706
C4  6  1.191063  0.000000  3.621012
C5  6 -0.054259  0.000000  4.299821
C6  6 -0.207447  0.000000  5.712127
C7  6 -1.475275  0.000000  6.259249
C8  6 -2.635607  0.000000  5.446877
C9  6 -2.511944  0.000000  4.071607
C10 6 -1.213970  0.000000  3.470544
N11 7 -1.170419  0.000000  2.111123
O12 8 -3.600290  0.000000  3.264511
</mquinolinol>


<quinolinol>
REM Src: Gaussian03 b3lyp/6-31+G(d), Ilia A. Guzei
REM Name: 8-Hydroxyquinoline, C9H7NO
RESI QUIN
DFIX 1.3812  C6   C5
DFIX 1.4159  C6   C7
DFIX 1.3785  C3   C2
DFIX 1.4195  C3   C4
DFIX 1.3542  O11  C8
DFIX 1.3205  N10  C1
DFIX 1.3615  N10  C9
DFIX 1.4302  C9   C8
DFIX 1.4277  C9   C4
DFIX 1.4201  C5   C4
DFIX 1.4177  C2   C1
DFIX 1.3810  C8   C7
DANG 2.2996  C1   C9
DANG 2.4104  C1   C3
DANG 2.4093  C2   N10
DANG 2.4205  C2   C4
DANG 2.4182  C3   C9
DANG 2.5133  C3   C5
DANG 2.4583  C4   N10
DANG 2.4712  C4   C8
DANG 2.4209  C4   C6
DANG 2.4435  C5   C7
DANG 2.4565  C5   C9
DANG 2.4199  C6   C8
DANG 2.4342  C7   C9
DANG 2.3845  C7   O11
DANG 2.3768  C8   N10
DANG 2.3960  C9   O11
FLAT C1 > O11
SIMU C1 > O11
RIGU C1 > O11
FRAG 17 1 1 1 90 90 90
C1  6    0.000075  0.000256  0.000050
C2  6    0.000001 -0.000754  1.417717
C3  6    1.204557 -0.000379  2.087889
C4  6    2.419660  0.000941  1.353904
C5  6    3.713528  0.001459  1.939405
C6  6    4.829893  0.002651  1.126134
C7  6    4.723100  0.003447 -0.285659
C8  6    3.476413  0.002931 -0.879936
C9  6    2.298604  0.001787 -0.068677
N10 7    1.104914  0.001477 -0.723275
O11 8    3.338595  0.003601 -2.227084
</quinolinol>


<Cyclohexane>
rem Src: Gaussian 03 B3LYP/6-31+G(d,p) Opt
rem Name: Cyclohexane, C6H12
RESI CYH
SADI C1 C2 C2 C3 C3 C4 C4 C5 C5 C6 C6 C1
SADI 0.04 C1 C5 C3 C5 C2 C6 C2 C4 C4 C6 C1 C3
SIMU C1 > C6
RIGU C1 > C6
FRAG 17 1 1 1 90 90 90
C1   1    1.077432    0.997227    0.229521
C2   1    1.402687   -0.434241   -0.229581
C3   1    0.325134   -1.431258    0.229507
C4   1   -1.077432   -0.997227   -0.229521
C5   1   -1.402687    0.434241    0.229581
C6   1   -0.325134    1.431258   -0.229507
</Cyclohexane>


<ether>
rem Src: Gaussian 03 pbe1pbe/6-311++G(3df,3pd), Ilia A. Guzei
REM Name: Diethyl ether, C4H10O
REM ETH
RESI DIET
SADI C1 C2 C3 C4
SADI O1 C2 O1 C3
SADI 0.04 C1 O1 O1 C4
SIMU O1 > C4
RIGU O1 > C4
FRAG 17 1 1 1 90 90 90
O1   3   0.445427   0.111653   0.205538
C1   1   1.618115  -0.780303  -1.675303
C2   1   1.017082  -1.079296  -0.313914
C3   1  -0.147697  -0.056793   1.484120
C4   1  -0.721097   1.273775   1.936641
</ether>


<tBu-C>
rem Src: Gaussian 03 B3LYP/6-311G(d,p) Opt
rem Name: tert-Butyl-C
REM C-tBu without H atoms
RESI CTBU
SADI C2 C3 C2 C4 C2 C5 C2 C1
SADI 0.04 C3 C4 C3 C5 C4 C5
SADI 0.04 C1 C3 C1 C4 C1 C5
SIMU C1 > C5
RIGU C1 > C5
FRAG 17 1 1 1 90 90 90
C1 1    0.078571   0.028684   -0.000002
C2 1   -1.461121   0.005441    0.000000
C3 1   -2.069261   1.420103    0.000003
C4 1   -1.964795  -0.733029    1.261728
C5 1   -1.964800  -0.733025   -1.261729
</tBu-C>


<tBu-O>
rem Src: Gaussian 03 b3lyp/6-31G(d), Ilia A. Guzei
rem Name: tert-Butanol (or tert-Butoxy)
RESI TBUO
DFIX 1.45 O1 C1
SADI 0.04 O1 C2 O1 C3 O1 C4
SADI C1 C2 C1 C3 C1 C4
SADI 0.04 C2 C3 C3 C4 C4 C2
SIMU O1 > C4
RIGU O1 > C4
FRAG 17 1 1 1 90 90 90
O1  4 -2.093378  1.134082 -0.084963
C1  1 -0.743687  1.228240 -0.574859
C2  1 -0.031105  0.005011  0.006551
C3  1 -0.749844  1.180989 -2.110429
C4  1 -0.102469  2.528995 -0.067788
</tBu-O>


<tBu-N>
rem Src: Gaussian 03 B3LYP/6-31G(d,p) Opt
Rem Name: tert-butyl-N
[...]
OXT   -8  -2.172  -1.259  -0.703
</asn>

<asp>
REM Name: ASPARTIC ACID
REM Produced by Grade Web Server http://grade.globalphasing.org
REM GEN: Generated by GRADE_PDB_LIGAND 1.2.9 (July 24 2014)
REM GEN: using MOGUL 1.7.1(RC1), CSD as537be, with quantum mechanics RM1
REM GEN: ((DatabaseID PDB-ASP))
REM grade-cif2shelx output
REM grade-cif2shelx extracts restraints from a grade CIF file
REM Version: 0.0.5 <Dec 20 2013>
REM Total charge set to 0
RESI ASP
DFIX 1.473 0.018 CA N
DFIX 1.541 0.030 C CA
DFIX 1.534 0.013 CA CB
DFIX 1.214 0.020 C O
DFIX 1.306 0.023 C OXT
DFIX 1.506 0.015 CB CG
DFIX 1.214 0.022 CG OD1
DFIX 1.307 0.024 CG OD2
DANG 2.496 0.053 C N
DANG 2.463 0.038 CB N
DANG 2.480 0.054 C CB
DANG 2.438 0.046 CA O
DANG 2.361 0.052 CA OXT
DANG 2.229 0.031 O OXT
DANG 2.529 0.036 CA CG
DANG 2.393 0.035 CB OD1
DANG 2.358 0.039 CB OD2
DANG 2.222 0.034 OD1 OD2
FLAT CG CB OD1 OD2
FLAT C O OXT CA
SIMU N > OXT
RIGU N > OXT
FRAG  17  1  1  1  90  90  90
N     -7  -0.344   1.738  -0.004
CA    -6  -0.505   0.314  -0.347
C     -6  -1.889  -0.222   0.068
O     -8  -2.521   0.195   1.018
CB    -6   0.551  -0.527   0.383
CG    -6   1.962  -0.181  -0.019
OD1   -8   2.226   0.672  -0.844
OD2   -8   2.869  -0.888   0.606
OXT   -8  -2.296  -1.177  -0.727
</asp>

<arg>
REM Name: ARGININE
REM Produced by Grade Web Server http://grade.globalphasing.org
REM GEN: Generated by GRADE_PDB_LIGAND 1.2.9 (July 24 2014)
REM GEN: using MOGUL 1.7.1(RC1), CSD as537be, with quantum mechanics RM1
REM GEN: ((DatabaseID PDB-ARG))
REM grade-cif2shelx output
REM grade-cif2shelx extracts restraints from a grade CIF file
REM Version: 0.0.5 <Dec 20 2013>
REM Total charge set to +1
RESI ARG
DFIX 1.473 0.018 CA N
DFIX 1.535 0.030 C CA
DFIX 1.544 0.030 CA CB
DFIX 1.214 0.020 C O
DFIX 1.306 0.023 C OXT
DFIX 1.523 0.021 CB CG
DFIX 1.515 0.020 CD CG
DFIX 1.456 0.010 CD NE
DFIX 1.325 0.007 CZ NE
DFIX 1.319 0.009 CZ NH1
DFIX 1.322 0.009 CZ NH2
DANG 2.497 0.053 C N
DANG 2.460 0.054 CB N
DANG 2.528 0.045 C CB
DANG 2.437 0.046 CA O
DANG 2.349 0.052 CA OXT
DANG 2.229 0.031 O OXT
DANG 2.541 0.054 CA CG
DANG 2.511 0.035 CB CD
DANG 2.465 0.031 CG NE
DANG 2.462 0.020 CD CZ
DANG 2.299 0.019 NE NH1
DANG 2.292 0.019 NE NH2
DANG 2.294 0.019 NH1 NH2
FLAT CZ NE NH1 NH2
FLAT CD NE CZ NH1
FLAT C O OXT CA
SIMU N > OXT
RIGU N > OXT
FRAG  17  1  1  1  90  90  90
N     -7  -0.382   1.144  -1.004
CA    -6   0.013   2.341  -1.768
C     -6  -0.910   2.602  -2.968
O     -8  -1.575   1.750  -3.522
CB    -6   1.487   2.209  -2.231
CG    -6   1.751   0.955  -3.060
CD    -6   3.198   0.879  -3.508
NE    -7   4.111   0.648  -2.397
CZ    -6   5.432   0.597  -2.493
NH1   -7   6.166   0.385  -1.418
NH2   -7   6.016   0.751  -3.670
OXT   -8  -0.889   3.862  -3.316
</arg>

<LEU>
REM Name: LEUCINE
REM Produced by Grade Web Server http://grade.globalphasing.org
REM GEN: Generated by GRADE_PDB_LIGAND 1.2.9 (July 24 2014)
REM GEN: using MOGUL 1.7.1(RC1), CSD as537be, with quantum mechanics RM1
REM GEN: ((DatabaseID PDB-LEU))
REM grade-cif2shelx output
REM grade-cif2shelx extracts restraints from a grade CIF file
REM Version: 0.0.5 <Dec 20 2013>
REM Total charge set to 0
RESI LEU
DFIX 1.473 0.018 CA N
DFIX 1.538 0.030 C CA
DFIX 1.530 0.010 CA CB
DFIX 1.214 0.020 C O
DFIX 1.306 0.023 C OXT
DFIX 1.524 0.017 CB CG
DFIX 1.517 0.028 CD1 CG
DFIX 1.517 0.028 CD2 CG
DANG 2.378 0.056 C N
DANG 2.537 0.045 CB N
DANG 2.465 0.054 C CB
DANG 2.437 0.046 CA O
DANG 2.357 0.052 CA OXT
DANG 2.229 0.031 O OXT
DANG 2.544 0.047 CA CG
DANG 2.506 0.040 CB CD1
DANG 2.506 0.040 CB CD2
DANG 2.496 0.044 CD1 CD2
FLAT C O OXT CA
SIMU N > OXT
RIGU N > OXT
FRAG  17  1  1  1  90  90  90
N      -7    -1.619   0.647  -0.576
CA     -6    -0.164   0.428  -0.507
C      -6     0.182  -0.240  -1.852
O      -8    -0.357  -1.245  -2.271
CB     -6     0.307  -0.522   0.596
CG     -6    -0.121  -0.103   1.998
CD1    -6     0.245  -1.168   3.014
CD2    -6     0.492   1.232   2.387
OXT    -8     1.127   0.407  -2.483
</LEU>

<LYS>
REM Name: LYSINE
REM Produced by Grade Web Server http://grade.globalphasing.org
REM GEN: Generated by GRADE_PDB_LIGAND 1.2.9 (July 24 2014)
REM GEN: using MOGUL 1.7.1(RC1), CSD as537be, with quantum mechanics RM1
REM GEN: ((DatabaseID PDB-LYS))
REM grade-cif2shelx output
REM grade-cif2shelx extracts restraints from a grade CIF file
REM Version: 0.0.5 <Dec 20 2013>
REM Total charge set to +1
RESI LYS
DFIX 1.473 0.018 CA N
DFIX 1.537 0.030 C CA
DFIX 1.542 0.030 CA CB
DFIX 1.214 0.020 C O
DFIX 1.306 0.023 C OXT
DFIX 1.523 0.021 CB CG
DFIX 1.520 0.023 CD CG
DFIX 1.510 0.024 CD CE
DFIX 1.485 0.016 CE NZ
DANG 2.472 0.053 C N
DANG 2.446 0.054 CB N
DANG 2.528 0.045 C CB
DANG 2.428 0.046 CA O
DANG 2.365 0.052 CA OXT
DANG 2.229 0.031 O OXT
DANG 2.518 0.055 CA CG
DANG 2.548 0.036 CB CD
DANG 2.519 0.048 CE CG
DANG 2.480 0.035 CD NZ
FLAT C O OXT CA
SIMU N > OXT
RIGU N > OXT
FRAG  17  1  1  1  90  90  90
N      -7     1.484   1.771   0.192
CA     -6     1.427   0.317   0.429
C      -6     2.714  -0.355  -0.078
O      -8     3.282  -0.026  -1.100
CB     -6     0.196  -0.264  -0.301
CG     -6    -1.100   0.256   0.310
CD     -6    -2.351  -0.347  -0.308
CE     -6    -3.617   0.188   0.316
NZ     -7    -4.830  -0.411  -0.298
OXT    -8     3.118  -1.313   0.715
</LYS>

<ile>
REM Name: ISOLEUCINE
REM Produced by Grade Web Server http://grade.globalphasing.org
REM GEN: Generated by GRADE_PDB_LIGAND 1.2.9 (July 24 2014)
REM GEN: using MOGUL 1.7.1(RC1), CSD as537be, with quantum mechanics RM1
REM GEN: ((DatabaseID PDB-ILE))
REM grade-cif2shelx output
REM grade-cif2shelx extracts restraints from a grade CIF file
REM Version: 0.0.5 <Dec 20 2013>
REM Total charge set to 0
RESI ILE
DFIX 1.460 0.021 CA N
DFIX 1.538 0.009 C CA
DFIX 1.542 0.010 CA CB
DFIX 1.214 0.020 C O
DFIX 1.306 0.023 C OXT
DFIX 1.529 0.012 CB CG1
DFIX 1.526 0.013 CB CG2
DFIX 1.513 0.030 CD1 CG1
DANG 2.470 0.036 C N
DANG 2.502 0.047 CB N
DANG 2.541 0.021 C CB
DANG 2.416 0.039 CA O
DANG 2.382 0.043 CA OXT
DANG 2.229 0.031 O OXT
DANG 2.541 0.029 CA CG1
DANG 2.525 0.025 CA CG2
DANG 2.528 0.024 CG1 CG2
DANG 2.556 0.033 CB CD1
FLAT C CA O OXT
SIMU N > OXT
RIGU N > OXT
FRAG  17  1  1  1  90  90  90
N     -7  -1.908   0.395  -0.347
CA    -6  -0.449   0.451  -0.396
C     -6   0.057  -0.144  -1.721
O     -8  -0.351  -1.204  -2.151
CB    -6   0.229  -0.222   0.816
CG1   -6  -0.391   0.240   2.137
CG2   -6   1.739   0.009   0.791
CD1   -6   0.154  -0.457   3.368
OXT   -8   0.953   0.598  -2.318
</ile>

<phe>
REM Name: PHENYLALANINE
REM Produced by Grade Web Server http://grade.globalphasing.org
REM GEN: Generated by GRADE_PDB_LIGAND 1.2.9 (July 24 2014)
REM GEN: using MOGUL 1.7.1(RC1), CSD as537be, with quantum mechanics RM1
REM GEN: ((DatabaseID PDB-PHE))
REM grade-cif2shelx output
REM grade-cif2shelx extracts restraints from a grade CIF file
REM Version: 0.0.5 <Dec 20 2013>
REM Total charge set to 0
RESI PHE
DFIX 1.473 0.018 CA N
DFIX 1.530 0.030 C CA
DFIX 1.538 0.020 CA CB
DFIX 1.214 0.020 C O
DFIX 1.306 0.023 C OXT
DFIX 1.509 0.008 CB CG
DFIX 1.385 0.011 CD1 CG
DFIX 1.385 0.011 CD2 CG
DFIX 1.384 0.010 CD1 CE1
DFIX 1.384 0.010 CD2 CE2
DFIX 1.379 0.015 CE1 CZ
DFIX 1.379 0.015 CE2 CZ
DANG 2.406 0.055 C N
DANG 2.465 0.041 CB N
DANG 2.482 0.055 C CB
DANG 2.430 0.046 CA O
DANG 2.350 0.052 CA OXT
DANG 2.229 0.031 O OXT
DANG 2.558 0.029 CA CG
DANG 2.520 0.018 CB CD1
DANG 2.520 0.018 CB CD2
DANG 2.378 0.017 CD1 CD2
DANG 2.406 0.015 CE1 CG
DANG 2.406 0.015 CE2 CG
DANG 2.396 0.018 CD1 CZ
DANG 2.396 0.018 CD2 CZ
DANG 2.386 0.020 CE1 CE2
FLAT CG CB CD1 CD2
FLAT C O OXT CA
FLAT CG CD1 CE1 CZ
FLAT CD1 CE1 CZ CE2
FLAT CE1 CZ CE2 CD2
FLAT CZ CE2 CD2 CG
FLAT CE2 CD2 CG CD1
FLAT CD2 CG CD1 CE1
SIMU N > OXT
RIGU N > OXT
FRAG  17  1  1  1  90  90  90
N     -7   1.261   1.012   1.170
CA    -6  -0.073   0.417   1.364
C     -6  -0.114  -0.101   2.804
O     -8   0.720  -0.843   3.284
CB    -6  -0.256  -0.784   0.421
CG    -6  -0.172  -0.437  -1.046
CD1   -6   1.030  -0.536  -1.731
CD2   -6  -1.295  -0.011  -1.741
CE1   -6   1.107  -0.218  -3.077
CE2   -6  -1.217   0.307  -3.086
CZ    -6  -0.016   0.204  -3.754
OXT   -8  -1.156   0.352   3.451
</phe>

<val>
REM Name: VALINE
REM Produced by Grade Web Server http://grade.globalphasing.org
REM GEN: Generated by GRADE_PDB_LIGAND 1.2.9 (July 24 2014)
REM GEN: using MOGUL 1.7.1(RC1), CSD as537be, with quantum mechanics RM1
REM GEN: ((DatabaseID PDB-VAL))
REM grade-cif2shelx output
REM grade-cif2shelx extracts restraints from a grade CIF file
REM Version: 0.0.5 <Dec 20 2013>
REM Total charge set to 0
RESI VAL
DFIX 1.460 0.021 CA N
DFIX 1.538 0.009 C CA
DFIX 1.540 0.012 CA CB
DFIX 1.214 0.020 C O
DFIX 1.306 0.023 C OXT
DFIX 1.522 0.020 CB CG1
DFIX 1.522 0.020 CB CG2
DANG 2.470 0.036 C N
DANG 2.522 0.047 CB N
DANG 2.537 0.023 C CB
DANG 2.416 0.039 CA O
DANG 2.382 0.043 CA OXT
DANG 2.229 0.031 O OXT
DANG 2.517 0.049 CA CG1
DANG 2.527 0.049 CA CG2
DANG 2.501 0.032 CG1 CG2
FLAT C CA O OXT
SIMU N > OXT
RIGU N > OXT
FRAG  17  1  1  1  90  90  90
N     -7   1.640  -0.581   0.341
CA    -6   0.202  -0.611   0.073
C     -6  -0.080  -0.125  -1.359
O     -8   0.530   0.797  -1.863
CB    -6  -0.646   0.168   1.097
CG1   -6  -0.673  -0.552   2.439
CG2   -6  -0.160   1.601   1.273
OXT   -8  -1.026  -0.799  -1.959
</val>

<cys>
REM Name: CYSTEINE
REM Produced by Grade Web Server http://grade.globalphasing.org
REM GEN: Generated by GRADE_PDB_LIGAND 1.2.9 (July 24 2014)
REM GEN: using MOGUL 1.7.1(RC1), CSD as537be, with quantum mechanics RM1
REM GEN: ((DatabaseID PDB-CYS))
REM grade-cif2shelx output
REM grade-cif2shelx extracts restraints from a grade CIF file
REM Version: 0.0.5 <Dec 20 2013>
REM Total charge set to 0
RESI CYS
DFIX 1.473 0.018 CA N
DFIX 1.533 0.030 C CA
DFIX 1.524 0.010 CA CB
DFIX 1.214 0.020 C O
DFIX 1.306 0.023 C OXT
DFIX 1.811 0.009 CB SG
DANG 2.367 0.056 C N
DANG 2.525 0.046 CB N
DANG 2.498 0.027 C CB
DANG 2.429 0.046 CA O
DANG 2.356 0.052 CA OXT
DANG 2.229 0.031 O OXT
DANG 2.800 0.018 CA SG
FLAT C O OXT CA
SIMU N > OXT
RIGU N > OXT
FRAG  17  1  1  1  90  90  90
N     -7   1.550   0.494   0.064
CA    -6   0.085   0.381   0.156
C     -6  -0.157  -0.111   1.589
O     -8   0.268  -1.164   2.021
CB    -6  -0.544  -0.594  -0.832
SG    -16  -0.237  -0.179  -2.568
OXT   -8  -0.870   0.737   2.283
</cys>

<met>
REM Name: METHIONINE
REM Produced by Grade Web Server http://grade.globalphasing.org
REM GEN: Generated by GRADE_PDB_LIGAND 1.2.9 (July 24 2014)
REM GEN: using MOGUL 1.7.1(RC1), CSD as537be, with quantum mechanics RM1
REM GEN: ((DatabaseID PDB-MET))
REM grade-cif2shelx output
REM grade-cif2shelx extracts restraints from a grade CIF file
REM Version: 0.0.5 <Dec 20 2013>
REM Total charge set to 0
RESI MET
DFIX 1.473 0.018 CA N
DFIX 1.532 0.030 C CA
DFIX 1.539 0.030 CA CB
DFIX 1.214 0.020 C O
DFIX 1.306 0.023 C OXT
DFIX 1.522 0.013 CB CG
DFIX 1.804 0.014 CG SD
DFIX 1.792 0.030 CE SD
DANG 2.362 0.056 C N
DANG 2.533 0.052 CB N
DANG 2.522 0.045 C CB
DANG 2.429 0.046 CA O
DANG 2.353 0.052 CA OXT
DANG 2.229 0.031 O OXT
DANG 2.554 0.038 CA CG
DANG 2.781 0.046 CB SD
DANG 2.765 0.035 CE CG
FLAT C O OXT CA
SIMU N > OXT
RIGU N > OXT
FRAG  17  1  1  1  90  90  90
N     -7  -1.730   0.174  -1.336
CA    -6  -0.292   0.464  -1.203
C     -6   0.308  -0.098  -2.497
O     -8   0.342  -1.281  -2.769
CB    -6   0.377  -0.182   0.023
CG    -6  -0.229   0.273   1.343
SD    -16   0.555  -0.485   2.780
CE    -6  -0.327   0.338   4.105
OXT   -8   0.775   0.849  -3.268
</met>

<pro>
REM Name: PROLINE
REM Produced by Grade Web Server http://grade.globalphasing.org
REM GEN: Generated by GRADE_PDB_LIGAND 1.2.9 (July 24 2014)
REM GEN: using MOGUL 1.7.1(RC1), CSD as537be, with quantum mechanics RM1
REM GEN: ((DatabaseID PDB-PRO))
REM grade-cif2shelx output
REM grade-cif2shelx extracts restraints from a grade CIF file
REM Version: 0.0.5 <Dec 20 2013>
REM Total charge set to 0
RESI PRO
DFIX 1.471 0.008 CA N
DFIX 1.474 0.013 CD N
DFIX 1.519 0.010 C CA
DFIX 1.539 0.011 CA CB
DFIX 1.214 0.020 C O
DFIX 1.306 0.023 C OXT
DFIX 1.517 0.028 CB CG
DFIX 1.518 0.015 CD CG
DANG 2.360 0.048 CA CD
DANG 2.463 0.025 C N
DANG 2.359 0.050 CB N
DANG 2.557 0.027 C CB
DANG 2.401 0.034 CA O
DANG 2.355 0.038 CA OXT
DANG 2.229 0.031 O OXT
DANG 2.469 0.053 CA CG
DANG 2.382 0.033 CB CD
DANG 2.369 0.036 CG N
FLAT C CA O OXT
SIMU N > OXT
RIGU N > OXT
FRAG  17  1  1  1  90  90  90
N     -7  -0.826   1.061   0.338
CA    -6   0.032  -0.120   0.518
C     -6   1.423   0.127  -0.042
O     -8   1.658   0.992  -0.862
CB    -6  -0.739  -1.230  -0.218
CG    -6  -2.147  -0.727  -0.481
CD    -6  -2.214   0.565   0.313
OXT   -8   2.320  -0.688   0.450
</pro>

<his>
REM Name: HISTIDINE
REM Produced by Grade Web Server http://grade.globalphasing.org
REM GEN: Generated by GRADE_PDB_LIGAND 1.2.9 (July 24 2014)
REM GEN: using MOGUL 1.7.1(RC1), CSD as537be, with quantum mechanics RM1
REM GEN: ((DatabaseID PDB-HIS))
REM grade-cif2shelx output
REM grade-cif2shelx extracts restraints from a grade CIF file
REM Version: 0.0.5 <Dec 20 2013>
REM Total charge set to +1
RESI HIS
DFIX 1.473 0.018 CA N
DFIX 1.543 0.030 C CA
DFIX 1.534 0.013 CA CB
DFIX 1.214 0.020 C O
DFIX 1.306 0.023 C OXT
DFIX 1.490 0.006 CB CG
DFIX 1.353 0.007 CD2 CG
DFIX 1.380 0.012 CG ND1
DFIX 1.323 0.009 CE1 ND1
DFIX 1.366 0.014 CD2 NE2
DFIX 1.319 0.012 CE1 NE2
DANG 2.493 0.053 C N
DANG 2.463 0.038 CB N
DANG 2.516 0.054 C CB
DANG 2.432 0.047 CA O
DANG 2.371 0.052 CA OXT
DANG 2.229 0.031 O OXT
DANG 2.532 0.022 CA CG
DANG 2.590 0.017 CB CD2
DANG 2.520 0.018 CB ND1
DANG 2.181 0.016 CD2 ND1
DANG 2.204 0.015 CE1 CG
DANG 2.190 0.014 CG NE2
DANG 2.144 0.015 ND1 NE2
DANG 2.186 0.016 CD2 CE1
FLAT CG CB ND1 CD2
FLAT C O OXT CA
FLAT CG ND1 CE1 NE2
FLAT ND1 CE1 NE2 CD2
FLAT CE1 NE2 CD2 CG
FLAT NE2 CD2 CG ND1
FLAT CD2 CG ND1 CE1
SIMU N > OXT
RIGU N > OXT
FRAG  17  1  1  1  90  90  90
N     -7  -0.005  -1.252  -0.070
CA    -6   1.201  -1.787   0.585
C     -6   1.037  -3.281   0.940
O     -8  -0.031  -3.787   1.223
CB    -6   1.506  -0.986   1.857
CG    -6   2.931  -1.062   2.286
ND1   -7   3.415  -2.068   3.096
CD2   -6   3.986  -0.258   2.019
CE1   -6   4.706  -1.874   3.305
NE2   -7   5.073  -0.783   2.663
OXT   -8   2.173  -3.928   0.901
</his>

<ala>
REM Name: ALANINE
REM Produced by Grade Web Server http://grade.globalphasing.org
REM GEN: Generated by GRADE_PDB_LIGAND 1.2.9 (July 24 2014)
REM GEN: using MOGUL 1.7.1(RC1), CSD as537be, with quantum mechanics RM1
REM GEN: ((DatabaseID PDB-ALA))
REM grade-cif2shelx output
REM grade-cif2shelx extracts restraints from a grade CIF file
REM Version: 0.0.5 <Dec 20 2013>
REM Total charge set to 0
RESI ALA
DFIX 1.457 0.030 CA N
DFIX 1.537 0.008 C CA
DFIX 1.538 0.030 CA CB
DFIX 1.214 0.020 C O
DFIX 1.306 0.023 C OXT
DANG 2.466 0.040 C N
DANG 2.495 0.056 CB N
DANG 2.514 0.034 C CB
DANG 2.411 0.035 CA O
DANG 2.386 0.044 CA OXT
DANG 2.229 0.031 O OXT
FLAT C CA O OXT
SIMU N > OXT
RIGU N > OXT
FRAG  17  1  1  1  90  90  90
N     -7  -0.939   0.534   1.487
CA    -6   0.265   0.362   0.684
C     -6  -0.091  -0.053  -0.752
O     -8  -0.924  -0.906  -0.986
CB    -6   1.240  -0.661   1.292
OXT   -8   0.582   0.592  -1.670
</ala>

<ser>
REM Name: SERINE
REM Produced by Grade Web Server http://grade.globalphasing.org
REM GEN: Generated by GRADE_PDB_LIGAND 1.2.9 (July 24 2014)
REM GEN: using MOGUL 1.7.1(RC1), CSD as537be, with quantum mechanics RM1
REM GEN: ((DatabaseID PDB-SER))
REM grade-cif2shelx output
REM grade-cif2shelx extracts restraints from a grade CIF file
REM Version: 0.0.5 <Dec 20 2013>
REM Total charge set to 0
RESI SER
DFIX 1.473 0.018 CA N
DFIX 1.529 0.030 C CA
DFIX 1.527 0.010 CA CB
DFIX 1.214 0.020 C O
DFIX 1.306 0.023 C OXT
DFIX 1.421 0.017 CB OG
DANG 2.375 0.056 C N
DANG 2.510 0.046 CB N
DANG 2.516 0.034 C CB
DANG 2.426 0.046 CA O
DANG 2.352 0.052 CA OXT
DANG 2.229 0.031 O OXT
DANG 2.427 0.030 CA OG
FLAT C O OXT CA
SIMU N > OXT
RIGU N > OXT
FRAG  17  1  1  1  90  90  90
N     -7   1.450   0.520  -0.452
CA    -6  -0.004   0.377  -0.265
C     -6  -0.162  -0.104   1.179
O     -8   0.122  -1.224   1.552
CB    -6  -0.650  -0.606  -1.238
OG    -8  -0.451  -0.191  -2.582
OXT   -8  -0.635   0.835   1.956
</ser>

<tyr>
REM Name: TYROSINE
REM Produced by Grade Web Server http://grade.globalphasing.org
REM GEN: Generated by GRADE_PDB_LIGAND 1.2.9 (July 24 2014)
REM GEN: using MOGUL 1.7.1(RC1), CSD as537be, with quantum mechanics RM1
REM GEN: ((DatabaseID PDB-TYR))
REM grade-cif2shelx output
REM grade-cif2shelx extracts restraints from a grade CIF file
REM Version: 0.0.5 <Dec 20 2013>
REM Total charge set to 0
RESI TYR
DFIX 1.473 0.018 CA N
DFIX 1.531 0.030 C CA
DFIX 1.538 0.020 CA CB
DFIX 1.214 0.020 C O
DFIX 1.306 0.023 C OXT
DFIX 1.509 0.008 CB CG
DFIX 1.385 0.011 CD1 CG
DFIX 1.385 0.011 CD2 CG
DFIX 1.383 0.010 CD1 CE1
DFIX 1.383 0.010 CD2 CE2
DFIX 1.386 0.010 CE1 CZ
DFIX 1.386 0.010 CE2 CZ
DFIX 1.365 0.013 CZ OH
DANG 2.396 0.055 C N
DANG 2.465 0.041 CB N
DANG 2.491 0.055 C CB
DANG 2.429 0.046 CA O
DANG 2.353 0.052 CA OXT
DANG 2.229 0.031 O OXT
DANG 2.558 0.029 CA CG
DANG 2.520 0.018 CB CD1
DANG 2.520 0.018 CB CD2
DANG 2.378 0.017 CD1 CD2
DANG 2.410 0.015 CE1 CG
DANG 2.410 0.015 CE2 CG
DANG 2.397 0.014 CD1 CZ
DANG 2.397 0.014 CD2 CZ
DANG 2.397 0.014 CE1 CE2
DANG 2.385 0.033 CE1 OH
DANG 2.385 0.033 CE2 OH
FLAT CG CB CD1 CD2
FLAT CZ CE1 CE2 OH
FLAT C O OXT CA
FLAT CG CD1 CE1 CZ
FLAT CD1 CE1 CZ CE2
FLAT CE1 CZ CE2 CD2
FLAT CZ CE2 CD2 CG
FLAT CE2 CD2 CG CD1
FLAT CD2 CG CD1 CE1
SIMU N > OXT
RIGU N > OXT
FRAG  17  1  1  1  90  90  90
N     -7   1.250   1.005   1.597
CA    -6  -0.083   0.412   1.802
C     -6  -0.112  -0.058   3.260
O     -8   0.709  -0.809   3.747
CB    -6  -0.260  -0.812   0.889
CG    -6  -0.179  -0.502  -0.586
CD1   -6   1.020  -0.621  -1.272
CD2   -6  -1.301  -0.090  -1.288
CE1   -6   1.102  -0.338  -2.624
CE2   -6  -1.234   0.196  -2.641
CZ    -6  -0.028   0.073  -3.313
OH    -8   0.046   0.354  -4.647
OXT   -8  -1.127   0.447   3.911
</tyr>

<thr>
REM Name: THREONINE
REM Produced by Grade Web Server http://grade.globalphasing.org
REM GEN: Generated by GRADE_PDB_LIGAND 1.2.9 (July 24 2014)
REM GEN: using MOGUL 1.7.1(RC1), CSD as537be, with quantum mechanics RM1
REM GEN: ((DatabaseID PDB-THR))
REM grade-cif2shelx output
REM grade-cif2shelx extracts restraints from a grade CIF file
REM Version: 0.0.5 <Dec 20 2013>
REM Total charge set to 0
RESI THR
DFIX 1.460 0.021 CA N
DFIX 1.538 0.009 C CA
DFIX 1.535 0.012 CA CB
DFIX 1.214 0.020 C O
DFIX 1.306 0.023 C OXT
DFIX 1.514 0.010 CB CG2
DFIX 1.428 0.010 CB OG1
DANG 2.470 0.036 C N
DANG 2.523 0.047 CB N
DANG 2.520 0.027 C CB
DANG 2.416 0.039 CA O
DANG 2.382 0.043 CA OXT
DANG 2.229 0.031 O OXT
DANG 2.534 0.021 CA CG2
DANG 2.415 0.027 CA OG1
DANG 2.408 0.032 CG2 OG1
FLAT C CA O OXT
SIMU N > OXT
RIGU N > OXT
FRAG  17  1  1  1  90  90  90
N     -7   1.589  -0.691   0.345
CA    -6   0.158  -0.631   0.052
C     -6  -0.077  -0.046  -1.351
O     -8   0.535   0.921  -1.760
CB    -6  -0.662   0.143   1.094
OG1   -8  -0.185   1.487   1.166
CG2   -6  -0.608  -0.500   2.464
OXT   -8  -0.987  -0.687  -2.037
</thr>

<sec>
REM Name: SELENOCYSTEINE
REM Produced by Grade Web Server http://grade.globalphasing.org
REM GEN: Generated by GRADE_PDB_LIGAND 1.2.9 (July 24 2014)
REM GEN: using MOGUL 1.7.1(RC1), CSD as537be, with quantum mechanics PM3
REM GEN: ((DatabaseID PDB-SEC))
REM grade-cif2shelx output
REM grade-cif2shelx extracts restraints from a grade CIF file
REM Version: 0.0.5 <Dec 20 2013>
REM Total charge set to 0
RESI SEC
DFIX 1.473 0.018 CA N
DFIX 1.536 0.030 C CA
DFIX 1.527 0.030 CA CB
DFIX 1.996 0.030 CB SE
DFIX 1.214 0.020 C O
DFIX 1.306 0.023 C OXT
DANG 2.541 0.052 C N
DANG 2.310 0.057 CB N
DANG 2.553 0.057 C CB
DANG 2.596 0.069 CA SE
DANG 2.433 0.046 CA O
DANG 2.358 0.052 CA OXT
DANG 2.229 0.031 O OXT
FLAT C O OXT CA
SIMU N > OXT
RIGU N > OXT
FRAG  17  1  1  1  90  90  90
N     -7  -0.619   1.614  -0.118
CA    -6  -0.934   0.184  -0.285
CB    -6  -0.011  -0.453   0.764
SE    -34   1.656  -0.382  -0.342
C     -6  -2.410  -0.179  -0.065
O     -8  -3.222   0.565   0.447
OXT   -8  -2.682  -1.384  -0.495
</sec>
