# Fragment database of DSR.py
#
# Some Fragments are from geometry optimizations with Gaussian 03:
#  Gaussian 03, Revision B.04,
#  M. J. Frisch, et. al. Gaussian, Inc., Pittsburgh PA, 2003.
#
# Some with TURBOMOLE V6.0 by K.Eichkorn, O.Treutler, H.Oehm,
#  M.Haeser and R.Ahlrichs (Chemical Physics Letters 242 (1995) 652-660)
#  parallel version: M.v.Arnim  &  R.Ahlrichs quantum chemistry group
#  university  karlsruhe germany
#
# Some are from Ilia A. Guzeis Idealized Molecular Geometry Library:
#  Guzei, Ilia A. 2010. Idealized Molecular Geometry Library.
#  University of Wisconsin-Madison. Madison, WI, USA
#  http://xray.chem.wisc.edu/Projects/IdealizedMolecularGeometry.html
#
# Some are imported from Grade the Web Server http://grade.globalphasing.org
#
#
# Other fragments are from in-house measurements.
#
########################################################################################
#   You can insert your own fragments to "dsr_user_db.txt". Just follow this syntax:
########################################################################################
# Database syntax:
# <name>                           <- Start tag.
# RESI class                       <- Required, defines the residue name of db entry.
# RESTRAINTS                       <- Any restraints and comments following the SHELXL syntax.
#                                     You must enter at least one restraint! e.g. RIGU C1 > C7
# FRAG 17 a b c alpha beta gamma   <- FRAG card with afix number and cell parameters.
#      Atom  number  coordinates   <- One isotropic atom per line. 
# e.g.  O1     1       x  y  z     <- Either the atom type is recognized by the atom name for 
                                      positive numbers.
# e.g.  O1    -8       x  y  z     <- Or the atom type is defined by the negative atomic     
                                      number.
# </name>                          <- End tag. Same as start tag but with /
#
# - Anything not being an atom after FRAG is ignored.
# - Only lines beginning with valid SHELXL instructions are allowed in the header.
# - Anything behind the 5th column in the atom list is ignored.
# - Long lines can be wrapped with an equal sign (=) and a space character in the next line
#   like in SHELXL, but the can also be of any length. All lines will be wrapped to fit
#   in the SHELXL file.
########################################################################################




<Octane>
REM Name: n-Octane, C8H18
REM Produced by Grade Web Server http://grade.globalphasing.org
REM GEN: Generated by GRADE_PDB_LIGAND 1.2.7 (February 19 2014)
REM GEN: using MOGUL 1.6(RC5), CSD as535be, with quantum mechanics RM1
REM grade-cif2shelx output
REM grade-cif2shelx extracts restraints from a grade CIF file
REM Version: 0.0.5 <Dec 20 2013>
RESI OCT1
DFIX 1.511 0.038 C1 C2
DFIX 1.517 0.031 C2 C3
DFIX 1.520 0.018 C3 C4
DFIX 1.520 0.018 C4 C5
DFIX 1.520 0.018 C5 C6
DFIX 1.517 0.031 C6 C7
DFIX 1.511 0.038 C7 C8
DANG 2.528 0.052 C1 C3
DANG 2.548 0.046 C2 C4
DANG 2.548 0.038 C3 C5
DANG 2.548 0.038 C4 C6
DANG 2.548 0.046 C5 C7
DANG 2.528 0.052 C6 C8
SIMU C1 > C8
RIGU C1 > C8
FRAG  17  1  1  1  90  90  90
C1     1      -0.268     0.000     4.451
C2     1       0.528     0.000     3.167
C3     1      -0.343     0.000     1.925
C4     1       0.438     0.000     0.621
C5     1      -0.438     0.000    -0.621
C6     1       0.343     0.000    -1.925
C7     1      -0.528     0.000    -3.167
C8     1       0.268     0.000    -4.451
</Octane>



<Toluene>
REM Name: Toluene, C7H8
REM Source: GRADE import
REM Gradeserver from http://grade.globalphasing.org
RESI TOL1
DFIX 1.509 0.011 C1 C2
DFIX 1.385 0.012 C2 C3
DFIX 1.385 0.012 C2 C7
DFIX 1.384 0.010 C3 C4
DFIX 1.379 0.015 C4 C5
DFIX 1.379 0.015 C5 C6
DFIX 1.384 0.010 C6 C7
DANG 2.520 0.017 C1 C3
DANG 2.520 0.017 C1 C7
DANG 2.374 0.018 C3 C7
DANG 2.410 0.019 C2 C4
DANG 2.396 0.019 C3 C5
DANG 2.386 0.022 C4 C6
DANG 2.396 0.019 C5 C7
DANG 2.410 0.019 C2 C6
FLAT C2 C1 C3 C7
FLAT C2 C3 C4 C5
FLAT C3 C4 C5 C6
FLAT C4 C5 C6 C7
FLAT C5 C6 C7 C2
FLAT C6 C7 C2 C3
FLAT C7 C2 C3 C4
FRAG  17  1  1  1  90  90  90
C1     -6      1.200    -0.023     3.615
C2     -6      1.203    -0.012     2.106
C3     -6      0.015    -0.011     1.390
C4     -6      0.015    -0.001     0.005
C5     -6      1.208     0.008    -0.688
C6     -6      2.398     0.006     0.009
C7     -6      2.394    -0.004     1.394
</TOLUENE>


<DME-free>
REM Name: 1,2-Dimethoxyethane, not coordinated, C4H10O2, DME
rem Src: Turbomole, B3-LYP/def2-TZVPP
rem This DME is not coordinated
RESI DME
DFIX 1.409 O1 C1 O2 C4
DFIX 1.412 O1 C2 O2 C3
DFIX 1.510 C2 C3
DANG 2.354 C1 C2 C3 C4
DANG 2.390 C2 O2 O1 C3
SIMU O1 > C4
RIGU O1 > C4
FRAG 17 1 1 1 90 90 90
O1  1  -1.3542148   -0.4780990   -0.5279749
O2  1   1.3983981   -0.3777806    0.4922128
C1  1  -2.7100766   -0.6834933   -0.2027211
C2  1  -0.7677388    0.5855895    0.1921388
C3  1   0.7022675    0.6754980   -0.1402004
C4  1   2.7670633   -0.4138645    0.1574639
</DME-free>


<DME>
REM SRC: TURBOMOLE, B3-LYP/def2-TZVP
rem Name: 1,2-Dimethoxyethane, coordinated to Na, C4H10O2, DME
REM This DME was coordinated to Na
RESI DME
DFIX 1.436 O1 C1 O2 C4 O1 C2 O2 C3
DFIX 1.510 C2 C3
DANG 2.394 C1 C2 C3 C4
DANG 2.412 C2 O2 O1 C3
SIMU C1 > C4
RIGU C1 > C4
FRAG 17  1  1  1  90  90  90
O1    1     -1.154  -0.748   0.526
O2    1      1.089   0.908   0.398
C1    1     -2.458  -1.345   0.452
C2    1     -0.693  -0.252  -0.740
C3    1      0.794   0.006  -0.679
C4    1      2.404   1.477   0.307
</DME>

<Chlorobenz>
REM Src: pbe1pbe/6-311++G(3df,3pd), Ilia A. Guzei
rem Name: Chlorobenzene, C6H5Cl
RESI CBZ
SADI C1 C2 C2 C3 C3 C4 C4 C5 C5 C6 C6 C1
SADI C1 C3 C3 C5 C2 C6 C2 C4 C4 C6 C1 C5
SADI Cl1 C2 Cl1 C6
FLAT Cl1 > C6
SIMU Cl1 > C6
RIGU Cl1 > C6
FRAG 17 1 1 1 90 90 90
Cl1 3 0.000000  0.000000  2.254410
C1  1 0.000000  0.000000  0.511618
C2  1 0.000000 -1.215734 -0.174314
C3  1 0.000000 -1.207087 -1.570551
C4  1 0.000000  0.000000 -2.272838
C5  1 0.000000  1.207087 -1.570551
C6  1 0.000000  1.215734 -0.174314
</Chlorobenz>


<Quinaldine>
REM Src: Gaussian03, b3lyp/6-31+G(d), Ilia A. Guzei
REM: Name: Quinaldine, C10H9N
RESI quin
SADI C2 C3 C3 C4 C4 C5 C5 C10 C5 C6 C6 C7 C7 C8 C8 C9 C9 C10
SADI N11 C2 N11 C10
SADI C2 C4 C4 C10 C3 C5
SADI C3 N11 N11 C5
SADI C6 C8 C6 C10 C9 C5 C9 C7 C8 C6 C8 C10 C5 C7
DFIX 1.511 C1 C2
FLAT C1 > C10
RIGU C1 > C10
SIMU C1 > C10
FRAG 17 1 1 1 90 90 90
C1  6  0.004068 0.000000 -0.004296
C2  6  0.005574 0.000000  1.506233
C3  6  1.232737 0.000000  2.232169
C4  6  1.207339 0.000000  3.607130
C5  6 -0.039155 0.000000  4.283401
C6  6 -0.166327 0.000000  5.698669
C7  6 -1.412439 0.000000  6.288002
C8  6 -2.582500 0.000000  5.484768
C9  6 -2.489973 0.000000  4.109117
C10 6 -1.219145 0.000000  3.471863
N11 7 -1.172349 0.000000  2.107931
</Quinaldine>


<acetate>
rem Src: b3lyp/6-31+G(d), Ilia A. Guzei
rem Name: Acetate, C2H3O2
RESI OAC
DFIX O1 C3 1.2623
DFIX O2 C3 1.2623
DFIX C3 C4 1.5633
DFIX O1 O2 2.2755
DFIX O1 C4 2.3970
DFIX O2 C4 2.3970
FLAT O1 > C4
SIMU O1 > C4
RIGU O1 > C4
FRAG 17 1 1 1 90 90 90
O1 8 -0.047364   -0.011223    -0.082683
O2 8 -0.047364   -0.011223     2.192793
C3 6  0.498976    0.008015     1.055055
C4 6  2.062240    0.018137     1.055055
</acetate>


<dmpz>
REM Name: Dimethylpyrazolato anion, [C5H6N]-, pz*
REM Src: pbe1pbe/6-311+G(d), Ilia A. Guzei
RESI CBZ
DFIX C4 C1 1.4951
DFIX C2 C3 1.4023
DFIX C2 C1 1.4021
DFIX C3 C5 1.4950
DFIX C3 N2 1.3421
DFIX N2 N1 1.3514
DFIX C1 N1 1.3422
DANG N1 C3 2.1843
DANG N1 C4 2.4643
DANG N1 C2 2.2488
DANG N2 C5 2.4641
DANG N2 C2 2.2488
DANG N2 C1 2.1843
DANG C1 C3 2.1975
DANG C2 C5 2.6205
DANG C2 C4 2.6206
RIGU N1 > C5
SIMU N1 > C5
FLAT N1 > C5
FRAG 17 1 1 1 90 90 90
N1  3 0.000000   -0.675725    1.201457
N2  3 0.000000    0.675725    1.201457
C1  1 0.000000   -1.098793   -0.072305
C2  1 0.000000    0.000000   -0.943507
C3  1 0.000000    1.098793   -0.072305
C4  1 0.000000   -2.560546   -0.385972
C5  1 0.000000    2.560546   -0.385972
</dmpz>





<Bipyridine>
rem Src: CCDC DOCYEB
REM Name: 2,2'-Bipyridine, C10H8N2, bipy
RESI BIP
SADI N1 C1 N1 C5 N2 C6 N2 C10
SADI C2 C3 C3 C4 C4 C5 C6 C7 C7 C8 C8 C9 C9 C10
DFIX 1.485 C5 C6
SADI 0.04 N1 C4 N1 C2 N2 C7 N2 C9
SADI 0.04 C1 C5 C1 C3 C2 C4 C3 C5 C6 C10 C6 C8 C7 C9
FLAT N1 > C10
SIMU N1 > C10
RIGU N1 > C10
FRAG 17  7.221 15.822 16.582 90 98.718 90
N1      3  0.963000  0.007020  0.661360  1.000000 0.05000
N2      3  0.771900  0.114320  0.559680  1.000000 0.05000
C1      1  1.057800 -0.045020  0.716750  1.000000 0.05000
C2      1  1.067700 -0.131630  0.705450  1.000000 0.05000
C3      1  0.977400 -0.166380  0.633190  1.000000 0.05000
C4      1  0.882200 -0.113040  0.574510  1.000000 0.05000
C5      1  0.877700 -0.026780  0.590600  1.000000 0.05000
C6      1  0.776200  0.034620  0.532150  1.000000 0.05000
C7      1  0.688100  0.011390  0.454480  1.000000 0.05000
C8      1  0.591100  0.072380  0.404530  1.000000 0.05000
C9      1  0.584000  0.154350  0.433810  1.000000 0.05000
C10     1  0.676400  0.172740  0.511330  1.000000 0.05000
</Bipyridine>


<Pyrazole>
REM Src: Gaussian03, pbe1pbe/6-311+G(d), Ilia A. Guzei
REM Name: Pyrazole, C3H4N2
RESI pyr
SADI C1 C2 C2 C3
SADI C1 N1 C3 N2
SADI C1 N2 C3 N1
RIGU C1 > N2
SIMU C1 > N2
FRAG 17  1  1  1  90  90  90
C1  1 -0.633822 -0.969049 0.000000
C2  1  0.742382 -0.957798 0.000000
C3  2  1.083183  0.402805 0.000000
N1  3 -1.014593  0.325538 0.000000
N2  3  0.007233  1.178904 0.000000
</Pyrazole>


<Pyrene>
REM Src: Gaussian03,  b3lyp/6-311+G(d), Ilia A. Guzei
rem Name: Pyrene, C16H10
RESI pyr
SADI C1 C2 C2 C3 C3 C3A C3A C4 C4 C5 C5 C5A C5A C6 C6 C7 C7 C8 C8 C8A C8A C9 =
  C9 C10 C10 C10A C10A C1 C10A C10B C10B C3A C10B C10C C10C C5A C10C C8A
SADI 0.04 C1 C3 C1 C10B C3A C2 C3A C10A C3 C10B C2 C10A C4 C5A C4 C10B C10C C5 C5 C3A =
  C3A C10C C5A C10B C5A C7 C5A C8A C7 C8A C6 C8 C6 C10C C8 C10C C9 C10A C9 C10C =
  C10A C10C C10 C10B C8A C10B C8A C10
SIMU C1 > C10c
RIGU C1 > C10c
FLAT C1 > C10c
FRAG 17  1  1  1  90  90  90
C1   1 -2.830028 -1.209088 0.000000
C2   1 -3.520007  0.000000 0.000000
C3   1 -2.830028  1.209088 0.000000
C3a  1 -1.427766  1.234552 0.000000
C4   1 -0.679679  2.461024 0.000000
C5   1  0.679679  2.461024 0.000000
C5a  1  1.427766  1.234552 0.000000
C6   1  2.830028  1.209088 0.000000
C7   1  3.520007  0.000000 0.000000
C8   1  2.830028 -1.209088 0.000000
C8a  1  1.427766 -1.234552 0.000000
C9   1  0.679679 -2.461024 0.000000
C10  1 -0.679679 -2.461024 0.000000
C10a 1 -1.427766 -1.234552 0.000000
C10b 1 -0.712711  0.000000 0.000000
C10c 1  0.712711  0.000000 0.000000
</Pyrene>




<Pentafl>
REM Src: CSD search among high quality structures, Ilia A. Guzei
REM Name: Pentafluorophenyl, -C6F5
REM from a D6h-symmetrized geometry of C6F6
RESI pefl
SADI 0.02  C2 C3  C1 C2  C3 C4  C1 C6  C4 C5  C5 C6
SADI 0.04  C4 C6  C3 C5  C2 C4  C1 C5  C1 C3  C2 C6
SADI 0.02 C2 F5  C3 F4  C4 F3  C5 F2  C1 F1
SADI 0.04 C1 F1 C5 F1 C6 F2 C4 F2 C5 F3 C3 F3 C4 F4 C2 F4 C1 F5 C3 F5
FLAT C1 > F2
SIMU C1 > F2
RIGU C1 > F2
FRAG 17 1 1 1  90 90 90
C1  1   0.000000  1.394954 0.000000
C2  1   1.208066  0.697477 0.000000
C3  1   1.208066 -0.697477 0.000000
C4  1   0.000000 -1.394954 0.000000
C5  1  -1.208066 -0.697477 0.000000
C6  1  -1.208066  0.697477 0.000000
F3  1   0.000000 -2.745111 0.000000
F4  1   2.377336 -1.372555 0.000000
F5  1   2.377336  1.372555 0.000000
F1  1  -2.377336  1.372555 0.000000
F2  1  -2.377336 -1.372555 0.000000
</Pentafl>


<PFAnion>
RESI AlPF
REM Name: [Al{OC(CF3)3}4]- PF-Anion
DFIX 1.72 0.03 Al1 O1 Al1 O2 Al1 O3 Al1 O4
SADI O1 O2 O1 O3 O1 O4 O2 O3 O2 O4 O3 O4
SADI 0.05 Al1 C1 Al1 C5 Al1 C9 Al1 C13
DFIX 1.359 0.03 O1 C1 O2 C5 O3 c9 o4 c13
SADI 0.04 O1 C2 O1 C3 O1 C4  O2 C6 O2 C7 O2 C8  O3 c10 O3 C11 O3 C12  O4 C14 O4 C15 O4 C16
SADI C1 C2 C1 C3 C1 C4  C5 C6 C5 C7 C5 C8  C9 C10 C9 C11 C9 C12  C13 C14 C13 C15 C13 C16
SADI 0.04 C2 C3 C2 C4 C3 C4  C6 C7 C6 C8 C7 C8  C10 C11 C10 C12 C11 C12  C14 C15 C14 C16 C15 C16
SADI C2 F1 C2 F2 C2 F3  C3 F4 C3 F5 C3 F6  C4 F7 C4 F8 C4 F9  C6 F10 C6 F11 C6 F12 =
   C7 F13 C7 F14 C7 F15  C8 F16 C8 F17 C8 F18  C10 F19 C10 F20 C10 F21  C11 F22 C11 F23 C11 F24 =
   C12 F25 C12 F26 C12 F27  C14 F28 C14 F29 C14 F30  C15 F31 C15 F32 C15 F33 =
   C16 F34 C16 F35 C16 F36
SADI 0.04 F1 F2 F2 F3 F3 F2  F4 F5 F4 F6 F6 F5  F7 F8 F7 F9 F9 F8 =
   F10 F11 F10 F12 F12 F11  F13 F14 F14 F15 F15 F14  F16 F17 F17 F18 F18 F17
SIMU Al1 > C16
RIGU Al1 > C16
FRAG 17 9.4620  13.6925  13.6839   89.907   90.021   89.967
Al1   4   1.00003   -0.24999   0.24991
O1    2   0.89982   -0.16394   0.30981
C1    1   0.82344   -0.08068   0.30489
C2    1   0.70803   -0.08678   0.22317
F1    3   0.76039   -0.12578   0.14352
F2    3   0.65458   -0.00077   0.19964
F3    3   0.60136   -0.14420   0.25378
C3    1   0.75104   -0.06441   0.40583
F4    3   0.84220   -0.03373   0.47124
F5    3   0.64763    0.00199   0.40068
F6    3   0.69647   -0.14768   0.43829
C4    1   0.92076    0.00761   0.28224
F7    3   1.03912    0.00061   0.33222
F8    3   0.95606    0.00961   0.18765
F9    3   0.86098    0.09309   0.30265
O2    2   1.10084   -0.19017   0.16392
C5    1   1.17710   -0.19489   0.08059
C6    1   1.24979   -0.09469   0.06457
F10   3   1.35267   -0.09964  -0.00219
F11   3   1.15822   -0.02854   0.03388
F12   3   1.30359   -0.06129   0.14775
C7    1   1.07893   -0.21746  -0.00736
F13   3   1.04406   -0.31273  -0.00996
F14   3   1.13910   -0.19743  -0.09343
F15   3   0.96103   -0.16779  -0.00123
C8    1   1.29159   -0.27688   0.08693
F16   3   1.34556   -0.30038   0.00011
F17   3   1.39870   -0.24629   0.14414
F18   3   1.23917   -0.35636   0.12591
O3    2   0.89912   -0.33599   0.18953
C9    1   0.82350   -0.41942   0.19462
C10   1   0.75035   -0.43562   0.09451
F19   3   0.84106   -0.46611   0.02811
F20   3   0.69563   -0.35186   0.06198
F21   3   0.64682   -0.50132   0.09984
C11   1   0.92081   -0.50768   0.21770
F22   3   1.03851   -0.50096   0.16689
F23   3   0.95612   -0.51042   0.31195
F24   3   0.86030   -0.59299   0.19724
C12   1   0.70780   -0.41321   0.27720
F25   3   0.65440   -0.49974   0.29975
F26   3   0.60165   -0.35545   0.24678
F27   3   0.76048   -0.37476   0.35585
O4    2   1.10011   -0.31016   0.33563
C14   1   1.29276   -0.22284   0.41335
C13   1   1.17691   -0.30561   0.41945
F28   3   1.23934   -0.14395   0.37421
F29   3   1.39836   -0.25309   0.35540
F30   3   1.34619   -0.20046   0.49926
C15   1   1.07947   -0.28250   0.50778
F31   3   0.96136   -0.33238   0.50142
F32   3   1.04419   -0.18827   0.51000
F33   3   1.13950   -0.30272   0.59288
C16   1   1.24936   -0.40511   0.43566
F34   3   1.35264   -0.40040   0.50181
F35   3   1.15795   -0.47180   0.46603
F36   3   1.30411   -0.43804   0.35185
</PFAnion>


<hfipO>
REM Src: Turbomole, B3LYP/def2-TZVPP
rem Name: Hexafluoroisopropanol, C3H2F6O, hfip
RESI HFIP
SADI C2 F1 C2 F2 C2 F3  C3 F4 C3 F5 C3 F6
SADI C1 C2 C1 C3
DFIX 1.31 O1 C1
DFIX 2.527 0.03 C2 C3
SADI O1 C2 O1 C3
SADI 0.04 C1 F1 C1 F2 C1 F3 C1 F4 C1 F5 C1 F6
SIMU O1 > F6
RIGU O1 > F6
FRAG 17 1  1  1  90  90  90
O1    1      1.56146       -0.98947        0.00000
C1    2      0.30418       -0.62025        0.00000
C2    2     -0.07823        0.19052        1.26375
C3    3     -0.07823        0.19052       -1.26375
F1    3      0.15328       -0.54900        2.36570
F2    3     -1.39094        0.54896        1.34009
F3    3      0.62402        1.32758        1.41073
F4    3      0.15328       -0.54900       -2.36570
F5    3      0.62402        1.32758       -1.41073
F6    3     -1.39094        0.54896       -1.34009
</hfipO>

<OCH2CF3>
rem Src: TURBOMOLE V6.0  B-P86/def-SV(P)
rem Name: Trifluoroethanol, OCH2CF3-
RESI OCCF
DFIX 1.376 O1 C1
DFIX 1.530 C1 C2
DANG 2.415 O1 C2
SADI F1 C2 F2 C2 F3 C2
SADI 0.04 F1 F2 F2 F3 F3 F1
SADI 0.04 F1 C1 F2 C1 F3 C1
SIMU O1 > F3
RIGU O1 > F3
FRAG 17  1  1  1  90  90  90
O1   2      -0.75623        1.65208       -0.33478
C1   1      -2.10507        1.91209       -0.42225
C2   1      -2.58835        1.99186       -1.87166
F1   3      -1.95714        2.96525       -2.57811
F2   3      -3.92641        2.28171       -1.91217
F3   3      -2.41301        0.83156       -2.54596
</OCH2CF3>


<Ethanol>
REM Src: Turbomole, B3LYP/def2-TZVPP
rem Name: Ethanol, C2H6O
RESI ETH
DFIX 1.510 C1 C2
DFIX 1.425 C1 O1
DFIX 2.366 0.03 C2 O1
SIMU O1 > C2
RIGU O1 > C2
FRAG 17  1  1  1  90  90  90
O1   2   -0.97071       -1.14465        0.00000
C1   1   -0.50625        0.20248        0.00000
C2   1    1.00302        0.15990        0.00000
</Ethanol>

<pyridine>
rem Name: Pyridine, C5H5N
rem Src: EPEXED
RESI PYRI
SADI N1 C1 N1 C5
SADI C1 C2 C2 C3 C3 C4 C4 C5
SADI 0.04 N1 C4 N1 C2
SADI C3 C5 C3 C1 C4 C3 C5 C1
FLAT N1 > C5
SIMU N1 > C5
RIGU N1 > C5
FRAG 17 15.039 12.809 14.218 90 90 90
N1      3  0.125940  0.725600  0.985470  1.000000 0.05000
C1      1  0.110960  0.633200  0.946190  1.000000 0.05000
C2      1  0.105800  0.616000  0.850650  1.000000 0.05000
C3      1  0.117900  0.698900  0.791270  1.000000 0.05000
C4      1  0.132850  0.795200  0.829330  1.000000 0.05000
C5      1  0.136070  0.805400  0.926080  1.000000 0.05000
</pyridine>


<propane>
rem Name: Propane, C3H8
REM Src: CCDC 103186
RESI PROP
SADI C1 C2 C2 C3
DANG 2.540 C1 C3
SIMU C1 > C3
RIGU C1 > C3
FRAG 17 4.148 12.612 6.977 90 91.28 90
C1      1  0.217300  0.948250  0.219960  1.000000 0.05000
C2      1  0.308500  0.875410  0.388090  1.000000 0.05000
C3      1  0.230600  0.759140  0.344940  1.000000 0.05000
</propane>


<pentane>
rem Src: CCDC 102188
REM: Name: n-Pentane, C5H10
RESI PEN
SADI C1 C2 C2 C3 C3 C4 C4 C5
SADI 0.04 C1 C3 C3 C5 C2 C4
FLAT C1 > C5
SIMU C1 > C5
RIGU C1 > C5
FRAG 17  4.1357 9.025 14.816 90 90 90
C1    1   0.196000   0.368860   0.087800   1.00000   0.05000
C2    1   0.094100   0.461660   0.168320   1.00000   0.05000
C3    1   0.000000   0.369650   0.250000   0.50000   0.05000
C4    1  -0.094100   0.461660   0.331680   1.00000   0.05000
C5    1  -0.196000   0.368860   0.412200   1.00000   0.05000
</pentane>



<Hexane>
rem Src: CCDC 103189
REM: Name: n-Hexane, C6H14
RESI HEX
SADI C1 C2 C2 C3 C3 C4 C4 C5 C5 C6
SADI 0.04 C1 C3 C3 C5 C2 C4 C4 C6
FLAT 0.15 C1 C2 C3 C4 C5 C6
SIMU C1 > C6
RIGU C1 > C6
FRAG 17 4.1309 4.6963 8.539 83.4 87.265 75.172
C1    1   0.223300   0.731400   0.152630   1.00000   0.05000
C2    1   0.371900   0.492880   0.283660   1.00000   0.05000
C3    1   0.427500   0.618430   0.433610   1.00000   0.05000
C4    1   0.572500   0.381570   0.566390   1.00000   0.05000
C5    1   0.628100   0.507120   0.716340   1.00000   0.05000
C6    1   0.776700   0.268600   0.847370   1.00000   0.05000
</Hexane>


<Heptane>
rem Src: CCDC 103190
REM Name: n-Heptane, C7H16
RESI HEPT
SADI C1 C2 C2 C3 C3 C4 C4 C5 C5 C6 C6 C7
SADI C1 C3 C3 C5 C2 C4 C4 C6 C5 C7
FLAT 0.15 C1 > C7
SIMU C1 > C7
RIGU C1 > C7
FRAG 17 4.116 4.686 20.348 78.11 81.79 74.25
C1      1  1.160300  0.293000  0.427980  1.000000 0.05000
C2      1  1.128400  0.175600  0.365640  1.000000 0.05000
C3      1  1.010900  0.427100  0.306980  1.000000 0.05000
C4      1  0.977700  0.314500  0.243990  1.000000 0.05000
C5      1  0.857800  0.566400  0.185820  1.000000 0.05000
C6      1  0.826000  0.455900  0.122430  1.000000 0.05000
C7      1  0.700000  0.710200  0.065280  1.000000 0.05000
</Heptane>


<Octane>
REM Name: n-Octane, C8H18
rem Src: CCDC 103191
RESI OCT1
SADI C1 C2  C2 C3  C3 C4  C4 C5  C5 C6  C6 C7  C7 C8
SADI 0.04 C1 C3  C3 C5  C5 C7  C2 C4  C4 C6  C6 C8
FLAT 0.2 C1 > C8 
SIMU C1 > C8
RIGU C1 > C8
FRAG  17  4.1947 4.7518 10.998 85.11 83.77 74.26
C1    1   0.800900   0.253400   0.879350   1.00000   0.05000
C2    1   0.673400   0.479200   0.777760   1.00000   0.05000
C3    1   0.640600   0.343900   0.661230   1.00000   0.05000
C4    1   0.516400   0.567900   0.558310   1.00000   0.05000
C5    1   0.483600   0.432100   0.441690   1.00000   0.05000
C6    1   0.359400   0.656100   0.338770   1.00000   0.05000
C7    1   0.326600   0.520800   0.222240   1.00000   0.05000
C8    1   0.199100   0.746600   0.120650   1.00000   0.05000
</Octane>


<Nonane>
REM Name: n-Nonane, C8H18
rem Src: CCDC 103192
RESI OCT1
SADI C1 C2  C2 C3  C3 C4  C4 C5  C5 C6  C6 C7  C7 C8  C8 C9
SADI 0.04 C1 C3  C3 C5  C5 C7 C7 C9  C2 C4  C4 C6  C6 C8
FLAT 0.2 C1 > C9
SIMU C1 > C9
RIGU C1 > C9
FRAG  17  4.118 4.674 24.693 86.27 87.8 74.52
C1      1  0.621800  0.718400  0.057990  1.000000 0.05000
C2      1  0.552600  0.536300  0.108040  1.000000 0.05000
C3      1  0.405900  0.726000  0.155410  1.000000 0.05000
C4      1  0.332500  0.548500  0.205990  1.000000 0.05000
C5      1  0.186600  0.740500  0.253100  1.000000 0.05000
C6      1  0.113700  0.564100  0.303890  1.000000 0.05000
C7      1 -0.035300  0.757000  0.350670  1.000000 0.05000
C8      1 -0.106700  0.581700  0.401510  1.000000 0.05000
C9      1 -0.262100  0.777900  0.447520  1.000000 0.05000
</Nonane>

<THF>
rem Src: Gaussian 03 B3LYP/6-311++G(d,p) Opt
Rem Name: Tetrahydrofurane, thf
RESI THF
SADI 0.02  C1 C2  C3 C4
SADI 0.02  O1 C1  O1 C4
SADI 0.04  O1 C2  O1 C3
SADI 0.04  C2 C4  C1 C3
SIMU O1 > C4
RIGU O1 > C4
FRAG 17 1  1  1  90  90  90
O1    8      -0.000002   -1.251859   -0.000006
C1    6      -1.169782   -0.428968   -0.130825
C2    6      -0.734164    0.995903    0.225049
C3    6       0.734171    0.995898   -0.225052
C4    6       1.169778   -0.428974    0.130832
</THF>



<12-dichlorobenz>
rem Src: pbe1pbe/6-311++G(3df,3pd), Ilia A. Guzei
REM Name: 1,2-Dichlorobenzene, C6H4Cl2
RESI ClBE
SADI 0.02  C1 Cl1  C2 Cl2
SADI 0.02  C1 C6  C5 C6  C1 C2  C4 C5  C3 C4  C2 C3
SADI 0.04  C1 Cl2  C3 Cl2  C2 Cl1  C6 Cl1
SADI 0.04  C4 C6  C3 C5  C2 C4  C1 C3  C2 C6  C1 C5
FLAT Cl1 > C6
SIMU Cl1 > C6
RIGU Cl1 > C6
FRAG 17 1 1 1 90 90 90
Cl1 5 -1.523470 0.000000  2.201659
Cl2 5  1.222433 0.000000  3.838354
C1  1  0.004668 0.000000  1.388157
C2  1  1.211032 0.000000  2.107210
C3  1  2.426801 0.000000  1.418236
C4  1  2.447679 0.000000  0.025008
C5  1  1.247880 0.000000 -0.690132
C6  1  0.032329 0.000000 -0.008988
</12-dichlorobenz>


<12-Difluorobenz>
rem Name: 1,2-Difluorobenzene, C6H4F2
rem Src: Gaussian 03 B3LYP/6-31+G(d,p) Opt
RESI FBEN
SADI 0.02  C1 F1  C2 F2
SADI 0.02  C1 C6  C5 C6  C1 C2  C4 C5  C3 C4  C2 C3
SADI 0.04  C1 F2  C3 F2  C2 F1  C6 F1
SADI 0.04  C4 C6  C3 C5  C2 C4  C1 C3  C2 C6  C1 C5
FLAT C1 > F2
SIMU C1 > F2
RIGU C1 > F2
FRAG 17 1 1 1 90 90 90
C1     6     0.533697    0.696785   -0.000001
C2     6     0.533729   -0.696788    0.000000
C3     6    -0.661804   -1.403751    0.000000
C4     6    -1.869488   -0.698847    0.000000
C5     6    -1.869518    0.698801    0.000000
C6     6    -0.661846    1.403734    0.000000
F1     9     1.713672    1.355435    0.000000
F2     9     1.713722   -1.355385    0.000000
</12-Difluorobenz>


<Napht>
rem Src: b3lyp/6-311+G(d), Ilia A. Guzei
REM: Name: Naphthalene C10H8
RESI NAPH
SADI 0.0200  C2 C3  C1 C2  C3 C4  C4 C4A  C1 C8A  C4A C5  C5 C6  C6 C7  C8 C8A =
     C7 C8 C4A C8A
SADI 0.0400  C5 C7  C4A C6  C6 C8  C4 C5  C7 C8A  C3 C4A  C2 C4  C1 C8  C1 C3 =
     C2 C8A
SADI 0.0400  C1 C4A  C4 C8A 
SADI 0.0400  C5 C8A  C4A C8 
FLAT C1 > C8a
SIMU C1 > C8a
RIGU C1 > C8a
FRAG 17 1 1 1 90 90 90
C1  1 0.000000  1.400530  1.243880
C2  1 0.000000  0.707569  2.430888
C3  1 0.000000 -0.707569  2.430888
C4  1 0.000000 -1.400530  1.243880
C4a 1 0.000000 -0.715982  0.000000
C5  1 0.000000 -1.400530 -1.243880
C6  1 0.000000 -0.707569 -2.430888
C7  1 0.000000  0.707569 -2.430888
C8  1 0.000000  1.400530 -1.243880
C8a 1 0.000000  0.715982  0.000000
</Napht>


<Acetonitrile>
rem Src: pbe1pbe/6-311++G(3df,3pd), Ilia A. Guzei
rem Name: Acetonitrile, C2H3N, NMe
RESI MeCN
DFIX 0.01 1.162 C1 N1
DFIX 0.01 1.453 C2 N1
DFIX 0.01 2.616 C2 N1
SIMU N1 > C2
RIGU N1 > C2
FRAG 17 1 1 1 90 90 90
N1   3  0.000000  0.000000  1.439011
C1   1  0.000000  0.000000  0.276653
C2   1  0.000000  0.000000 -1.176783
</Acetonitrile>


<NSiMe3>
rem Src: own measurement
REM Name: Trimethylsilyl-N, C3H10OSi, N-TMS
RESI NSI
SADI Si1 C1 Si1 C2 Si1 C3
SADI C1 C2 C2 C3 C3 C1
SADI 0.04 N1 C1 N1 C2 N1 C3
SIMU N1 > C3
RIGU N1 > C3
FRAG 17 21.7069   9.2762  16.9850  90.000 110.554  90.000
N1    3    0.142398    0.343635    0.192072
SI1   4    0.088953    0.293670    0.244601
C1    1    0.092822    0.420803    0.331026
C2    1    0.110847    0.109215    0.288825
C3    1    0.001505    0.299282    0.171842
</NSiMe3>



<Hexa>
rem Src: own measurement
REM Name: Hexamethyldisilazane, C6H19NSi2
RESI HEXA
SADI N1 Si1 N1 Si2
SADI Si1 C1 Si1 C2 Si1 C3  Si2 C4 Si2 C5 Si2 C6
SADI 0.04 C1 C2 C2 C3 C3 C1  C4 C5 C5 C6 C6 C4
SADI 0.04 N1 C1 N1 C2 N1 C3  N1 C4 N1 C5 N1 C6
DFIX 3.054 0.04 Si1 Si2
SIMU N1 > C6
RIGU N1 > C6
FRAG 17 21.7069   9.2762  16.9850  90.000 110.554  90.000
N1    3    0.142398    0.343635    0.192072
SI1   4    0.088953    0.293670    0.244601
C1    1    0.092822    0.420803    0.331026
C2    1    0.110847    0.109215    0.288825
C3    1    0.001505    0.299282    0.171842
SI2   4    0.136576    0.259830    0.096411
C4    1    0.114377    0.397578    0.011501
C5    1    0.071922    0.117330    0.061122
C6    1    0.214656    0.164146    0.107732
</Hexa>




<et4N+>
rem Src: CCDC ABENRE
rem Name: Tetraethylammonium, C8H20N+, NEt4+, et4N+
RESI NET4
SADI N1 C1 N1 C7 N1 C3 N1 C5
SADI C1 C2 C3 C4 C5 C6 C7 C8
SADI 0.04 C1 C3 C3 C5 C5 C7 C7 C1
SADI 0.08 C2 C4 C4 C6 C6 C8
SADI 0.04 N1 C2 N1 C4 N1 C6 N1 C8
SIMU N1 > C8
RIGU N1 > C8
rem these FLAT restraints might me removed later:
FLAT 0.2 N1 C3 C4 C7 C8
FLAT 0.2 N1 C1 C2 C5 C6
FRAG 17 16.41 13.81 16.91 90 90 90
N1    1  0.425700  0.261500  0.002100
C1    2  0.452600  0.154300 -0.002600
C2    2  0.435500  0.094100  0.073900
C3    2  0.333100  0.265000  0.017800
C4    2  0.280700  0.211700 -0.041200
C5    2  0.448800  0.305400 -0.078300
C6    2  0.425700  0.413400 -0.084300
C7    2  0.464300  0.310400  0.072100
C8    2  0.554900  0.316400  0.069100
</et4N+>



<Benzene>
REM Name: Benzene, Benzol, C6H6
REM Produced by Grade Web Server http://grade.globalphasing.org
REM GEN: Generated by GRADE 1.2.7 (February 19 2014)
REM GEN: from SMILES c1ccccc1
REM GEN: using MOGUL 1.6(RC5), CSD as535be, with quantum mechanics RM1
REM grade-cif2shelx output
REM grade-cif2shelx extracts restraints from a grade CIF file
REM Version: 0.0.5 <Dec 20 2013>
REM Total charge set to 0
RESI BENZ
DFIX 1.379 0.015 C1 C2
DFIX 1.379 0.015 C2 C3
DFIX 1.379 0.015 C3 C4
DFIX 1.379 0.015 C4 C5
DFIX 1.379 0.015 C5 C6
DFIX 1.379 0.015 C6 C1
DANG 2.386 0.022 C6 C4
DANG 2.386 0.022 C1 C5
DANG 2.386 0.022 C3 C5
DANG 2.386 0.022 C2 C4
DANG 2.386 0.022 C1 C3
DANG 2.386 0.022 C6 C2
FLAT C1 > C6
SIMU C1 > C6
RIGU C1 > C6
FRAG  17  1  1  1  90  90  90
C1      1     0.051   0.507  -0.392
C2      1     1.348   0.754  -0.797
C3      1     2.405   0.186  -0.112
C4      1     2.164  -0.628   0.977
C5      1     0.867  -0.874   1.382
C6      1    -0.189  -0.307   0.697
</Benzene>



<Supersilyle>
rem Name: Tris(trimethylsilyl)silane, [(CH3)3Si]3Si, Supersilyle
rem Src: CCDC CEYMID
RESI SUP
SADI Si1 C1 Si1 C2 Si1 C3 Si2 C4 Si2 C5 Si2 C6 Si3 C7 Si3 C8 Si3 C9
SADI Si1 Si4  Si2 Si4 Si3 Si4
SADI 0.04 Si4 C1 Si4 C2 Si4 C3 Si4 C4 Si4 C5 Si4 C6 Si4 C7 Si4 C8 Si4 C9
SADI Si1 Si2  Si2 Si3 Si3 Si1
SADI 0.04 C1 C2 C2 C3 C3 C1 C4 C5 C5 C6 C6 C4 C7 C8 C8 C9 C9 C7
SIMU Si1 > C9
RIGU Si1 > C9
FRAG 17 10.13 17.035 27.695 90 109.02 90
Si1     4  0.499980  0.937620  0.866250
Si2     4  0.803660  0.958810  0.814020
Si3     4  0.500160  0.817460  0.749120
Si4     4  0.644260  0.868600  0.828450
O1      3  0.733080  0.802570  0.872160
C1      1  0.420800  0.867310  0.901230
C2      1  0.603900  1.012600  0.912580
C3      1  0.353800  0.989600  0.816870
C4      1  0.943500  0.982090  0.875480
C5      1  0.711700  1.052070  0.786890
C6      1  0.891800  0.918930  0.768910
C7      1  0.455000  0.902150  0.703630
C8      1  0.580900  0.741030  0.718230
C9      1  0.337300  0.772640  0.755910
</Supersilyle>


<Cp>
rem Src: Gaussian 03 B3LYP/6-31+G(d,p) Opt
rem Name: Cyclopentadienyl, [C5H5]-, Cp
RESI CP
SADI 0.02  C2 C3  C1 C2  C3 C4  C1 C5  C4 C5
SADI 0.04  C3 C5  C2 C4  C1 C4  C1 C3  C2 C5
FLAT C1 > C5
SIMU C1 > C5
RIGU C1 > C5
FRAG 17  1  1  1  90  90  90
C1   1   -0.680944    0.995938  -0.000002
C2   1    0.736784    0.955370   0.000001
C3   1    1.136318   -0.405495   0.000000
C4   1   -0.034498   -1.205965   0.000000
C5   1   -1.157659   -0.339847   0.000001
</Cp>


<Cpstar>
rem Src: Gaussian 03 B3LYP/6-31G(d,p) Opt
rem Name: Pentamethylcyclopentadienyl, [C5Me5]-, Cp*
RESI CPST
SADI C1 C2 C2 C3 C3 C4 C4 C5 C5 C1
SADI 0.04 C1 C3  C2 C4  C3 C5  C5 C2  C1 C4
SADI C1 C10 C2 C9 C3 C8 C4 C7 C5 C6
SADI 0.04 C10 C2 C10 C5 C9 C1 C9 C3 C8 C2 C8 C4 =
 C7 C3 C7 C5 C6 C4 C6 C1
FLAT C1 > C10
SIMU C1 > C10
RIGU C1 > C10
FRAG 17  1  1  1  90  90  90
C1     6    -1.060600   -0.571473   -0.002912
C2     6     0.215982   -1.186741    0.001368
C3     6     1.197057   -0.162068   -0.000321
C4     6     0.524440    1.088178    0.004475
C5     6    -0.871368    0.833295    0.000684
C6     6    -1.960201    1.871332    0.002844
C7     6     1.180461    2.442921   -0.013978
C8     6     2.688028   -0.370618    0.017599
C9     6     0.475656   -2.669197   -0.016235
C10    6    -2.388757   -1.277095    0.008582
</Cpstar>



<TIP>
REM Name: Triisopropylphenyl, TIP
rem Src: Turbomole, B3LYP/def2-TZVPP
SADI C1 C2 C2 C3 C3 C4 C4 C5 C5 C6 C6 C1
SADI 0.04 C1 C3 C3 C5 C5 C1 C2 C4 C4 C6 C6 C2
SADI C2 C10 C4 C13 C6 C7
SADI C7 C8 C7 C9 C10 C11 C10 C12 C13 C14 C13 C15
SADI 0.04 C8 C9 C11 C12 C14 C15
SADI 0.04 C6 C8 C6 C9 C2 C11 C2 C12 C4 C14 C4 C15
SADI 0.04 C3 C13 C5 C13 C1 C7 C5 C7 C1 C10 C3 C10
FLAT C1 > C6 C7 C10 C13
SIMU C1 > C15
RIGU C1 > C15
RESI TIP2
FRAG  17  1  1  1  90  90  90
C1   1    1.1050  -1.1645   0.0000
C2   1   -0.2120  -1.6193   0.0000
C3   1   -1.2357  -0.6703   0.0000
C4   1   -0.9671   0.6972   0.0000
C5   1    0.3656   1.1132   0.0000
C6   1    1.4154   0.1964   0.0000
C7   1    2.8660   0.6516   0.0000
C8   1    3.2215   1.4460   1.2661
C9   1    3.2215   1.4460  -1.2661
C10  1   -0.5117  -3.1095   0.0000
C11  1   -1.2646  -3.5463   1.2660
C12  1   -1.2646  -3.5463  -1.2660
C13  1   -2.1081   1.7022   0.0000
C14  1   -2.1106   2.5726   1.2661
C15  1   -2.1106   2.5726  -1.2661
</TIP>



<OC(CF3)3>
rem Name: Nonafluoro-tert-butoxy, [(CF3)3CO]-
rem Src: TURBOMOLE V6.0  B-P86/def-SV(P)
RESI CCF3
SADI 0.02 C1 C2 C1 C3 C1 C4
SADI 0.02 F1 C2 F2 C2 F3 C2 F4 C3 F5 C3 F6 C3 F7 C4 F8 C4 F9 C4
SADI 0.04 C2 C3 C3 C4 C2 C4
SADI 0.04 O1 C2 O1 C3 O1 C4
SADI 0.04 F1 F2 F2 F3 F3 F1 F4 F5 F5 F6 F6 F4 F7 F8 F8 F9 F9 F7
# The soft SADI restraint allows the CF3 group to tilt a little:
SADI 0.1 F1 C1 F2 C1 F3 C1 F4 C1 F5 C1 F6 C1 F7 C1 F8 C1 F9 C1
SIMU O1 > F9
RIGU O1 > F9
FRAG 17  1  1  1  90  90  90
O1   -8      -0.01453        1.66590        0.10966
C1   -6      -0.00146        0.26814        0.06351
C2   -6      -1.13341       -0.23247       -0.90730
F1   -9      -2.34661       -0.11273       -0.34544
F2   -9      -0.96254       -1.50665       -1.29080
F3   -9      -1.12263        0.55028       -2.01763
C3   -6       1.40566       -0.23179       -0.43131
F4   -9       2.38529        0.42340        0.20561
F5   -9       1.53256        0.03843       -1.75538
F6   -9       1.57833       -1.55153       -0.25035
C4   -6      -0.27813       -0.21605        1.52795
F7   -9       0.80602       -0.03759        2.30431
F8   -9      -0.58910       -1.52859        1.53460
F9   -9      -1.29323        0.46963        2.06735
</OC(CF3)3>


<PF6>
rem Name: Hexafluorophosphate, PF6
rem Src: Gaussian 03 B3LYP/6-311+G(d,p) Opt
RESI PF6
SADI P1 F1 P1 F2 P1 F3 P1 F4 P1 F5 P1 F6
SADI F1 F2 F1 F3 F1 F4 F1 F5 F2 F3 F2 F6 F2 F5 F3 F6 F3 F4 F5 F6
SADI F1 F6 F2 F4 F3 F5
EADP F1 F6
EADP F2 F4
EADP F3 F5
FRAG 17 1  1  1  90  90  90
P1      6    0.000040    0.000000   -0.000058
F1      5   -1.572128    0.474789    0.110335
F2      5   -0.127880   -0.042017   -1.640210
F3      5    1.572201   -0.474868   -0.110339
F4      5    0.127809    0.042044    1.640306
F5      5    0.470393    1.575477   -0.077012
F6      5   -0.470461   -1.575424    0.077017
</PF6>

<mimme>
REM Src: Gaussian03 b3lyp/6-31+G(d), Ilia A. Guzei
REM Name: (1-methyl-1H-imidazol-2-yl)methanol, C5H8N2O
RESI MIM
DFIX 1.3721  C6   C5
DFIX 1.3847  C6   N7
DFIX 1.5058  C3   C2
DFIX 1.3165  C3   N4
DFIX 1.3774  C3   N7
DFIX 1.4155  O1   C2
DFIX 1.3771  C5   N4
DFIX 1.4552  C8   N7
DANG 2.3810  O1   C3
DANG 2.5206  C2   N4
DANG 2.5215  C2   N7
DANG 2.1460  C3   C5
DANG 2.2131  C3   C6
DANG 2.5504  C3   C8
DANG 2.2295  N4   N7
DANG 2.2596  N4   C6
DANG 2.1965  C5   N7
DANG 2.5204  C6   C8
FLAT O1 > C8
SIMU O1 > C8
RIGU O1 > C8
FRAG 17 1 1 1 90 90 90
O1 8    0.000000  0.000000  0.000000
C2 6    0.000000  1.415461  0.000000
C3 6    1.358331  1.909397 -0.422586
N4 7    2.394752  1.164514 -0.745023
C5 6    3.402934  2.048559 -1.058675
C6 6    2.968311  3.342914 -0.923461
N7 7    1.648917  3.252748 -0.512989
C8 6    0.777670  4.386313 -0.241938
</mimme>


<BF4>
REM Src: Gaussian03 pbe1pbe/6-311+G(3df), Ilia A. Guzei
REM Name: Tetrafluoroborate, [BF4]-
RESI BF4
SIMU B1 > F4
RIGU B1 > F4
DFIX 21.000 0.01 B1 F1 B1 F2 B1 F3 B1 F4
DFIX 21.633 0.02 F1 F2 F1 F3 F1 F4 F2 F3 F2 F4 F3 F4
REM with SADI:
REM SADI B1 F1 B1 F2 B1 F3 B1 F4
REM SADI 0.04 F1 F2  F2 F3  F3 F4  F4 F1  F2 F4  F1 F3
FRAG 17 1 1 1 90 90 90
B1  5  0.000000  0.000000  0.000000
F1  4  0.809590  0.809590  0.809590
F2  4 -0.809590  0.809590 -0.809590
F3  4  0.809590 -0.809590 -0.809590
F4  4 -0.809590 -0.809590  0.809590
</BF4>

<TFA>
REM Name: Trifluoroacetic acid, C2H1F3O2, TFA
REM Src: Gaussian03 b3lyp/6-31+G(d), Ilia A. Guzei
RESI TFA
SADI C4 F1 C4 F2 C4 F3
SADI 0.04 C5 F1 C5 F2 C5 F3
SADI 0.04 F1 F2 F2 F3 F3 F1
DFIX 1.20 C5 O6
DFIX 1.34 C5 O7
DFIX 2.2707 O6 O7
DFIX 2.4323 C4 O6
DFIX 2.3694 C4 O7
FLAT C4 C5 O6 O7
RIGU F1 > O7
SIMU F1 > O7
FRAG 17 1 1 1 90 90 90
F1 9 0.206794 0.017882 -0.076820
F2 9 -0.158957 -0.030752 2.071766
F3 9 1.888186 0.052982 1.310344
C4 6 0.626685 0.482727 1.103228
C5 6 0.571892 2.032370 1.126534
O6 8 0.198653 2.699294 0.197891
O7 8 0.995400 2.486086 2.313549
</TFA>


<mquinolinol>
REM Src: Gaussian03 b3lyp/6-31+G(d), Ilia A. Guzei
REM Name: 2-Methyl-8-quinolinol, C10H9NO
RESI MQUI
DFIX 1.4206  C6   C5
DFIX 1.3807  C6   C7
DFIX 1.4239  C3   C2
DFIX 1.3777  C3   C4
DFIX 1.3600  N11  C10
DFIX 1.3247  N11  C2
DFIX 1.3549  O12  C9
DFIX 1.4305  C9   C10
DFIX 1.3808  C9   C8
DFIX 1.4257  C5   C10
DFIX 1.4184  C5   C4
DFIX 1.5092  C2   C1
DFIX 1.4165  C8   C7
DANG 2.5557  C1   C3
DANG 2.4236  C1   N11
DANG 2.4261  C2   C4
DANG 2.3149  C2   C10
DANG 2.3974  C3   N11
DANG 2.4207  C3   C5
DANG 2.5157  C4   C6
DANG 2.4097  C4   C10
DANG 2.4204  C5   C7
DANG 2.4682  C5   C9
DANG 2.4569  C5   N11
DANG 2.4573  C6   C10
DANG 2.4426  C6   C8
DANG 2.4209  C7   C9
DANG 2.4347  C8   C10
DANG 2.3860  C8   O12
DANG 2.3756  C9   N11
DANG 2.3952  C10  O12
FLAT C1 > O12
SIMU C1 > O12
RIGU C1 > O12
FRAG 17 1 1 1 90 90 90
C1  6  0.010009  0.000000 -0.005503
C2  6  0.006818  0.000000  1.503664
C3  6  1.223257  0.000000  2.243706
C4  6  1.191063  0.000000  3.621012
C5  6 -0.054259  0.000000  4.299821
C6  6 -0.207447  0.000000  5.712127
C7  6 -1.475275  0.000000  6.259249
C8  6 -2.635607  0.000000  5.446877
C9  6 -2.511944  0.000000  4.071607
C10 6 -1.213970  0.000000  3.470544
N11 7 -1.170419  0.000000  2.111123
O12 8 -3.600290  0.000000  3.264511
</mquinolinol>


<quinolinol>
REM Src: Gaussian03 b3lyp/6-31+G(d), Ilia A. Guzei
REM Name: 8-Hydroxyquinoline, C9H7NO
RESI QUIN
DFIX 1.3812  C6   C5
DFIX 1.4159  C6   C7
DFIX 1.3785  C3   C2
DFIX 1.4195  C3   C4
DFIX 1.3542  O11  C8
DFIX 1.3205  N10  C1
DFIX 1.3615  N10  C9
DFIX 1.4302  C9   C8
DFIX 1.4277  C9   C4
DFIX 1.4201  C5   C4
DFIX 1.4177  C2   C1
DFIX 1.3810  C8   C7
DANG 2.2996  C1   C9
DANG 2.4104  C1   C3
DANG 2.4093  C2   N10
DANG 2.4205  C2   C4
DANG 2.4182  C3   C9
DANG 2.5133  C3   C5
DANG 2.4583  C4   N10
DANG 2.4712  C4   C8
DANG 2.4209  C4   C6
DANG 2.4435  C5   C7
DANG 2.4565  C5   C9
DANG 2.4199  C6   C8
DANG 2.4342  C7   C9
DANG 2.3845  C7   O11
DANG 2.3768  C8   N10
DANG 2.3960  C9   O11
FLAT C1 > O11
SIMU C1 > O11
RIGU C1 > O11
FRAG 17 1 1 1 90 90 90
C1  6    0.000075  0.000256  0.000050
C2  6    0.000001 -0.000754  1.417717
C3  6    1.204557 -0.000379  2.087889
C4  6    2.419660  0.000941  1.353904
C5  6    3.713528  0.001459  1.939405
C6  6    4.829893  0.002651  1.126134
C7  6    4.723100  0.003447 -0.285659
C8  6    3.476413  0.002931 -0.879936
C9  6    2.298604  0.001787 -0.068677
N10 7    1.104914  0.001477 -0.723275
O11 8    3.338595  0.003601 -2.227084
</quinolinol>


<Cyclohexane>
rem Src: Gaussian 03 B3LYP/6-31+G(d,p) Opt
rem Name: Cyclohexane, C6H12
RESI CYH
SADI C1 C2 C2 C3 C3 C4 C4 C5 C5 C6 C6 C1
SADI 0.04 C1 C5 C3 C5 C2 C6 C2 C4 C4 C6 C1 C3
FLAT C1 C2 C4 C5
SIMU C1 > C6
RIGU C1 > C6
FRAG 17 1 1 1 90 90 90
C1   1    1.077432    0.997227    0.229521
C2   1    1.402687   -0.434241   -0.229581
C3   1    0.325134   -1.431258    0.229507
C4   1   -1.077432   -0.997227   -0.229521
C5   1   -1.402687    0.434241    0.229581
C6   1   -0.325134    1.431258   -0.229507
</Cyclohexane>


<ether>
rem Src: Gaussian 03 pbe1pbe/6-311++G(3df,3pd), Ilia A. Guzei
REM Name: Diethyl ether, C4H10O
REM ETH
RESI DIET
SADI C1 C2 C3 C4
SADI O1 C2 O1 C3
SADI 0.04 C1 O1 O1 C4
FLAT C1 > C4
SIMU O1 > C4
RIGU O1 > C4
FRAG 17 1 1 1 90 90 90
O1   3   0.445427   0.111653   0.205538
C1   1   1.618115  -0.780303  -1.675303
C2   1   1.017082  -1.079296  -0.313914
C3   1  -0.147697  -0.056793   1.484120
C4   1  -0.721097   1.273775   1.936641
</ether>


<tBu-C>
rem Src: Gaussian 03 B3LYP/6-311G(d,p) Opt
rem Name: Tert-butyl-C
REM C-tBu without H atoms
RESI CTBU
SADI C2 C3 C2 C4 C3 C5
SADI 0.04 C3 C4 C3 C5 C4 C5
SADI 0.04 C1 C3 C1 C4 C1 C5
SIMU C1 > C5
RIGU C1 > C5
FRAG 17 1 1 1 90 90 90
C1 1    0.078571   0.028684   -0.000002
C2 1   -1.461121   0.005441    0.000000
C3 1   -2.069261   1.420103    0.000003
C4 1   -1.964795  -0.733029    1.261728
C5 1   -1.964800  -0.733025   -1.261729
</tBu-C>


<tBu-O>
rem Src: Gaussian 03 b3lyp/6-31G(d), Ilia A. Guzei
rem Name: Tert-butanol (or tert-butoxy)
RESI TBUO
DFIX 1.45 O1 C1
SADI 0.04 O1 C2 O1 C3 O1 C4
SADI C1 C2 C1 C3 C1 C4
SADI 0.04 C2 C3 C3 C4 C4 C2
SIMU O1 > C4
RIGU O1 > C4
FRAG 17 1 1 1 90 90 90
O1  4 -2.093378  1.134082 -0.084963
C1  1 -0.743687  1.228240 -0.574859
C2  1 -0.031105  0.005011  0.006551
C3  1 -0.749844  1.180989 -2.110429
C4  1 -0.102469  2.528995 -0.067788
</tBu-O>


<tBu-N>
rem Src: Gaussian 03 B3LYP/6-31G(d,p) Opt
Rem Name: Tert-butyl-N
RESI NTBU
DFIX 1.49 N1 C1
SADI 0.04 N1 C2 N1 C3 N1 C4
SADI C1 C2 C1 C3 C1 C4
SADI 0.04 C2 C3 C3 C4 C4 C2
SIMU C1 > N1
RIGU C1 > N1
FRAG 17 1 1 1 90 90 90
C1     6      0.609978   -0.000038   -0.000063
C2     6      1.299796    1.243270   -0.598249
C3     6      1.300521   -1.241790   -0.600651
C4     6      0.803915   -0.001421    1.534683
N1     7     -0.823996   -0.000019   -0.415658
</tBu-N>


<DABCO>
rem Src: Gaussian 03 pbe1pbe/6-311+G(d), Ilia A. Guzei
REM Name: 1,4-Diazabicyclo[2.2.2]octane, DABCO
RESI DBCO
SADI N1 C1 N1 C3 N1 C5 N2 C2 N2 C4 N2 C6
SADI C1 C2 C3 C4 C5 C6
SADI 0.04 C1 C3 C3 C5 C1 C5 C2 C4 C2 C6 C4 C6
SADI 0.05 C1 C4 C2 C3 C4 C5 C3 C6 C1 C6 C2 C5
DFIX 2.558 N1 N2
SIMU N1 > C6
RIGU N1 > C6
FRAG 17 1 1 1 90 90 90
N1  3 -0.689896  1.213503 -0.498659
N2  3 -0.689896  1.213503  2.059392
C1  1 -0.011219  0.019734  0.003416
C2  1 -0.011219  0.019734  1.557316
C3  1 -2.063069  1.222636  0.003416
C4  1 -2.063069  1.222636  1.557316
C5  1  0.004599  2.398139  0.003416
C6  1  0.004599  2.398139  1.557316
</DABCO>


<Water>
rem Src: pbe1pbe/6-311++G(3df,3pd), Ilia A. Guzei
REM: Name: Water, H2O
RESI H2O
DFIX 0.9584 0.001 O1 H1 O1 H2
DFIX 1.5150 0.001 H1 H2
FRAG 17 1 1 1 90 90 90
O1  4  0.0000 0.0000 0.0000
H1  2  0.9584 0.0000 0.0000
H2  2 -0.2392 0.9281 0.0000
</Water>


<CHCl3>
rem Src: Turbomole, B3-LYP/def2-TZVPP
rem Name: Trichloromethane, Chloroform, CHCl3
RESI CCL3
DFIX 1.783 C1 Cl1 C1 Cl2 C1 Cl3
DANG 2.946 Cl1 Cl2 Cl2 Cl3 Cl3 Cl1
RIGU C1 > Cl3
SIMU C1 > Cl3
FRAG  17  1  1  1  90  90  90
C1   1    0.0000000    0.0000000   -0.1028729
CL1  2   -0.8504219    1.4729739    0.4333292
CL2  2   -0.8504219   -1.4729739    0.4333292
CL3  2    1.7008437    0.0000000    0.4333292
</CHCl3>


<DMF>
rem Src: Gaussian 03 B3LYP/6-31+G(d,p) Opt
REM Name: N,N-dimethylformamide, C3H7NO, DMF
RESI DMF
SADI N1 C2 N1 C3
DFIX 1.36 N1 C1
DFIX 1.22 C1 O1
FLAT C1 > C3
SIMU C1 > C3
RIGU C1 > C3
FRAG 17 1 1 1  90  90  90
C1    3  -0.863532   -0.649442   -0.000019
O1    1  -1.956254   -0.096874    0.000055
N1    2   0.345872   -0.019536   -0.000195
C2    3   1.593728   -0.761897    0.000057
C3    3   0.421705    1.433650    0.000019
</DMF>


<Acetone>
rem Src: Gaussian 03, pbe1pbe/6-311+G(d), Ilia A. Guzei
REM Name: Acetone, C3H6O
RESI ACE
SADI C1 C2 C2 C3
FLAT O1 > C3
SADI 0.04 C1 O1 C3 O1
DFIX 2.6029 C1 C3
SIMU O1 > C3
RIGU O1 > C3
FRAG 17 1 1 1  90  90  90
O1    8      0.000000    1.400149    0.000012
C1    6      1.292738   -0.614241    0.000006
C2    6      0.000000    0.184366   -0.000044
C3    6     -1.292738   -0.614241    0.000006
</Acetone>


<Ethylac>
rem Src: Daniel Kratzert
rem Name: Ethyl acetate, C4H8O2
RESI ETAC
SIMU O1 > C4
RIGU O1 > C4
FLAT O1 > C4
SADI C1 C2 C3 C4
DFIX 1.324 O1 C2
DFIX 1.218 O2 C2
DFIX 1.457 O1 C3
DFIX 2.347 O1 C1
DFIX 2.384 O1 C4
FRAG 17  5.8537   7.9695  12.0007   79.267   75.914   71.054
O1    3    0.58485   0.99408   0.79649
O2    3    0.57498   1.01516   0.60906
C1    1    0.83056   1.15362   0.66512
C2    1    0.65200   1.04813   0.68557
C3    1    0.40932   0.89077   0.82575
C4    1    0.34314   0.86040   0.95545
</Ethylac>


<Triflate>
rem Src: Own measurement
rem Name: Trifluoromethanesulfonate, CF3SO3-, Triflate
RESI TRIF
SIMU C1 > O3
RIGU C1 > O3
SADI C1 F1 C1 F2 C1 F3
SADI 0.04 F1 F2 F2 F3 F3 F1
SADI 0.04 S1 F1 S1 F2 S1 F3
SADI S1 O1 S1 O2 S1 O3
SADI 0.04 O1 O2 O2 O3 O1 O3
SADI 0.04 C1 O1 C1 O2 C1 O3
DFIX 1.824 C1 S1
FRAG 17  5.8537  7.9695  12.0007  79.267  75.914  71.054
C1    1    0.88571   0.50637   0.18685
F1    4    0.94881   0.65627   0.15170
F2    4    0.66156   0.53715   0.16645
F3    4    1.03940   0.38175   0.12271
S1    6    0.88987   0.43674   0.34015
O1    3    1.14297   0.40359   0.34715
O2    3    0.71954   0.58850   0.39393
O3    3    0.80703   0.27957   0.36326
</Triflate>


<N-Adamantane>
rem Name: Adamantane-N, C10H16N
rem Src: own measurement
RESI NADA
SADI N1 C2 N1 C3 N1 C4
SADI C1 C2 C1 C3 C1 C4  C5 C6 C6 C7 C7 C8 C8 C9 C9 C10 C10 C5
SADI C2 C9 C3 C7 C4 C5
SADI 0.04 C2 C3 C3 C4 C4 C2 C5 C9 C9 C7 C7 C5 C6 C10 C6 C8 C8 C10
SADI 0.1 C5 C8 C7 C10 C9 C6
DFIX N1 C1 1.475
SIMU N1 > C10
RIGU N1 > C10
FRAG 17  12.3433  16.8493  12.7271  90.000 105.861  90.000
N1   1    0.147412  0.183773  0.548368
C1   2    0.059113  0.244364  0.510517
C2   2    0.108962  0.327902  0.514528
C3   2   -0.016787  0.227100  0.395542
C4   2   -0.015659  0.241546  0.589857
C5   2   -0.110518  0.303143  0.558532
C6   2   -0.184176  0.285776  0.442985
C7   2   -0.111101  0.289611  0.363042
C8   2   -0.059481  0.372009  0.366091
C9   2    0.013949  0.389699  0.481391
C10  2   -0.058852  0.386127  0.561687
</N-Adamantane>


<Adamantane>
rem Src: own measurement
REM Name: Adamantane, C10H16
RESI CADA
SADI C1 C2 C1 C3 C1 C4 C5 C6 C6 C7 C7 C8 C8 C9 C9 C10 C10 C5 =
  C2 C9 C3 C7 C4 C5
SADI 0.04 C2 C3 C3 C4 C4 C2 C5 C9 C9 C7 C7 C5 C6 C10 C6 C8 C8 C10
SADI 0.1 C5 C8 C7 C10 C9 C6
SIMU C1 > C10
RIGU C1 > C10
FRAG 17  12.3433  16.8493  12.7271  90.000 105.861  90.000
C1   6    0.059113  0.244364  0.510517
C2   6    0.108962  0.327902  0.514528
C3   6   -0.016787  0.227100  0.395542
C4   6   -0.015659  0.241546  0.589857
C5   6   -0.110518  0.303143  0.558532
C6   6   -0.184176  0.285776  0.442985
C7   6   -0.111101  0.289611  0.363042
C8   6   -0.059481  0.372009  0.366091
C9   6    0.013949  0.389699  0.481391
C10  6   -0.058852  0.386127  0.561687
</Adamantane>


<Nitrate>
rem Src: CCDC GODJEQ
REM Name: Nitrate anion, [NO3]-
RESI NITR
SADI N1 O1 N1 O2 N1 O3
SADI 0.04 O1 O2 O2 O3 O3 O1
FLAT N1 > O3
SIMU N1 > O3
RIGU N1 > O3
FRAG  17  6.5438 9.8983 11.922 99.075 95.975 100.199
N1      3  0.266300  0.299160  0.125470  1.000000 0.05000
O1      4  0.267910  0.171910  0.119840  1.000000 0.05000
O2      4  0.274000  0.351760  0.037810  1.000000 0.05000
O3      4  0.256100  0.373080  0.219260  1.000000 0.05000
</Nitrate>



<Tosylate>
rem Name: Tosylate anion,  CH3C6H4SO3-
rem Src: Gaussian 03 B3LYP/6-31+G(d,p) Opt
RESI TOS
SADI 0.02  C2 C3  C1 C2  C3 C4  C4 C5  C5 C6  C1 C6
SADI 0.02  S1 O2  S1 O3  S1 O1
SADI 0.02  C4 C7  C4 S1
SADI 0.04  C4 C6  C2 C4  C1 C5  C3 C5  C2 C6  C1 C3
SADI 0.04  C3 C7  C5 S1  C3 S1  C5 C7
SADI 0.04  C4 O2  C3 C4  C4 O1
SADI 0.04  O2 O3  O1 O3  O1 O2
FLAT C1 > C7 S1
DFIX 1.829 S1 C4
SIMU C1 > C7
RIGU C1 > C7
FRAG  17  1  1  1  90  90  90
C1    6      2.661945   -0.002888    0.000126
C2    6      1.933546   -1.202062   -0.000320
C3    6      0.536864   -1.199929   -0.000988
C4    6     -0.164133    0.008718   -0.001266
C5    6      0.546488    1.211154   -0.000975
C6    6      1.944247    1.201926   -0.000341
S1    16    -1.992900    0.001469    0.000217
C7    6      4.175669   -0.005032    0.000795
O1    8     -2.365321    1.446225   -0.013698
O2    8     -2.352216   -0.715937    1.258673
O3    8     -2.354340   -0.740897   -1.243045
</Tosylate>


<CCl4>
rem Src: Gaussian 03 B3LYP/6-311++G(d,p)
rem Name: Tetrachloromethane, CCl4
RESI CCL4
SADI C1 Cl1 C1 Cl2 C1 Cl3 C1 Cl4
SADI 0.04 Cl1 Cl3 Cl2 Cl4 Cl1 Cl4 Cl2 Cl3 Cl1 Cl2 Cl3 Cl4
SIMU C1 > Cl4
RIGU C1 > Cl4
FRAG  17  1  1  1  90  90  90
C1     1    0.000054    0.000014   -0.000056
Cl1    2   -1.431320   -0.653566   -0.856399
Cl2    2    1.462303   -0.903170   -0.505198
Cl3    2   -0.229843   -0.176599    1.767670
Cl4    2    0.198841    1.733330   -0.406054
</CCl4>


<CH2Cl2>
rem Src: Gaussian 03, pbe1pbe/6-311++G(3df,3pd), Ilia A. Guzei
REM Name: Dichloromethane, CH2Cl2, DCM
RESI CCL2
SIMU C1 > CL2
RIGU C1 > CL2
DFIX 1.7602 0.002 Cl1 C1 Cl2 C1
DFIX 2.9338 0.004 Cl1 Cl2
FRAG  17  1  1  1  90  90  90
C1   1  -0.011933  0.000000 -0.008438
CL1  5  -0.806296 -1.466876 -0.570138
CL2  5  -0.806296  1.466876 -0.570138
</CH2Cl2>


<diox>
rem Src: CCDC OFIZAG
REM Name: Dioxane, C4H8O2
RESI DIOX
SADI C1 C2 C3 C4
SADI O1 C1 O1 C4 O2 C2 O2 C3
SADI 0.04 C1 C3 C2 C4
SADI 0.04 O1 C2 O1 C3 O2 C1 O2 C4
FLAT C1 C2 C3 C4
SIMU O1 > C4
RIGU O1 > C4
FRAG 17 6.847 7.0982 8.6412 106.676 105.448 90.679
O1    4   0.190880   0.039150   0.622930   1.00000   0.05000
O2    4  -0.190880  -0.039150   0.377070   1.00000   0.05000
C1    1   0.009080  -0.004220   0.662560   1.00000   0.05000
C2    1  -0.172280   0.057560   0.551210   1.00000   0.05000
C3    1  -0.009080   0.004220   0.337440   1.00000   0.05000
C4    1   0.172280  -0.057560   0.448790   1.00000   0.05000
</diox>


<DMSO>
rem Src: Gaussian 03 MP2/LANL2DZ Opt
rem Name: Dimethyl sulfoxide, DMSO, (CH3)2SO
RESI DMSO
SIMU O1 > C2
RIGU O1 > C2
SADI S1 C1 S1 C2
SADI C1 O1 C2 O1
DFIX 1.688 S1 O1
FRAG 17 1 1 1 90 90 90
O1    1   -0.000033    1.580618    0.415264
S1    2   -0.000001    0.178542   -0.524118
C1    3    1.426906   -0.809456    0.234348
C2    3   -1.426877   -0.809502    0.234347
</DMSO>


<ClO4>
rem Name: Perchlorate anion, ClO4-
rem Src: Gaussian 03 B3LYP/6-311++G(d,p) Opt
RESI CLO4
SADI Cl1 O1 Cl1 O2 Cl1 O3 Cl1 O4
SADI 0.04 O1 O3 O2 O4 O1 O4 O2 O3 O1 O2 O3 O4
SIMU Cl1 > O4
RIGU Cl1 > O4
FRAG 17 1 1 1 90 90 90
Cl1  17    -0.000002    0.000017    0.000046
O1   8    -0.349817    1.212079   -0.813509
O2   8     1.331912    0.208002    0.660509
O3   8     0.068545   -1.201825   -0.896794
O4   8    -1.050637   -0.218292    1.049695
</ClO4>


# Crystal sponge guest molecules:

<26DPA>
REM Name: 2,6-Diisopropylaniline, [(CH3)2CH]2C6H3NH2
REM Source: GRADE import
RESI DPA1
DFIX 1.310 0.030 C1 N1
DFIX 1.407 0.028 C1 C2
DFIX 1.407 0.028 C1 C6
DFIX 1.391 0.009 C2 C3
DFIX 1.519 0.009 C2 C7
DFIX 1.384 0.010 C3 C4
DFIX 1.384 0.010 C4 C5
DFIX 1.391 0.009 C5 C6
DFIX 1.519 0.009 C10 C6
DFIX 1.527 0.012 C7 C8
DFIX 1.527 0.012 C7 C9
DFIX 1.527 0.012 C10 C11
DFIX 1.527 0.012 C10 C12
DANG 2.368 0.050 C2 N1
DANG 2.362 0.050 C6 N1
DANG 2.410 0.036 C2 C6
DANG 2.419 0.026 C1 C3
DANG 2.554 0.028 C1 C7
DANG 2.518 0.020 C3 C7
DANG 2.412 0.019 C2 C4
DANG 2.402 0.016 C3 C5
DANG 2.412 0.019 C4 C6
DANG 2.419 0.026 C1 C5
DANG 2.554 0.028 C1 C10
DANG 2.518 0.020 C10 C5
DANG 2.521 0.024 C2 C8
DANG 2.521 0.024 C2 C9
DANG 2.506 0.024 C8 C9
DANG 2.521 0.024 C11 C6
DANG 2.521 0.024 C12 C6
DANG 2.506 0.024 C11 C12
FLAT C2 C1 C3 C7
FLAT C6 C1 C5 C10
FLAT C1 C2 C6 N1
FLAT C1 C2 C3 C4
FLAT C2 C3 C4 C5
FLAT C3 C4 C5 C6
FLAT C4 C5 C6 C1
FLAT C5 C6 C1 C2
FLAT C6 C1 C2 C3
FRAG  17  1  1  1  90  90  90
N1     1       0.681     0.356     2.458
C1     1      -0.042    -0.401     1.662
C2     1      -1.453    -0.552     1.864
C3     1      -2.190    -1.360     1.003
C4     1      -1.581    -2.022    -0.048
C5     1      -0.221    -1.893    -0.264
C6     1       0.564    -1.098     0.566
C7     1      -2.169     0.153     3.004
C8     1      -2.811    -0.842     3.968
C9     1      -3.217     1.137     2.487
C10    1       2.054    -0.990     0.287
C11    1       2.750    -2.343     0.414
C12    1       2.327    -0.384    -1.088
</26DPA>


<Cinnamald>
REM Source: GRADE import
REM Name: Cinnamaldehyde, C9H8O
RESI CNA1
DFIX 1.215 0.014 C9 O1
DFIX 1.393 0.011 C1 C2
DFIX 1.393 0.011 C1 C6
DFIX 1.467 0.017 C1 C7
DFIX 1.384 0.010 C2 C3
DFIX 1.379 0.015 C3 C4
DFIX 1.379 0.015 C4 C5
DFIX 1.384 0.010 C5 C6
DFIX 1.338 0.011 C7 C8
DFIX 1.432 0.025 C8 C9
DANG 2.384 0.018 C2 C6
DANG 2.492 0.037 C2 C7
DANG 2.492 0.037 C6 C7
DANG 2.413 0.015 C1 C3
DANG 2.396 0.019 C2 C4
DANG 2.386 0.022 C3 C5
DANG 2.396 0.019 C4 C6
DANG 2.413 0.015 C1 C5
DANG 2.514 0.021 C1 C8
DANG 2.401 0.026 C7 C9
DANG 2.364 0.031 C8 O1
FLAT C1 C2 C6 C7
FLAT C2 C1 C7 C8
FLAT C1 C7 C8 C9
FLAT C1 C2 C3 C4
FLAT C2 C3 C4 C5
FLAT C3 C4 C5 C6
FLAT C4 C5 C6 C1
FLAT C5 C6 C1 C2
FLAT C6 C1 C2 C3
FLAT O1 C9 C8 C7
FRAG  17  1  1  1  90  90  90
O1     1       3.322    -2.267     2.521
C1     1       0.153     0.606     0.183
C2     1      -1.202     0.939     0.173
C3     1      -1.698     1.869    -0.725
C4     1      -0.856     2.485    -1.626
C5     1       0.486     2.170    -1.631
C6     1       0.990     1.240    -0.737
C7     1       0.654    -0.386     1.147
C8     1       1.913    -0.819     1.293
C9     1       2.224    -1.798     2.293
</Cinnamald>


<Vanillin>
REM SOURCE: GRADE IMPORT (modified)
REM Name: Vanillin, 4-Hydroxy-3-methoxybenzaldehyde, C8H8O3
RESI VAN1
DFIX 1.425 0.015 C8 O3
DFIX 1.367 0.009 C1 O3
DFIX 1.399 0.012 C1 C2
DFIX 1.390 0.013 C2 C3
DFIX 1.383 0.009 C3 C4
DFIX 1.393 0.011 C4 C5
DFIX 1.397 0.010 C5 C6
DFIX 1.381 0.012 C1 C6
DFIX 1.468 0.014 C5 C7
DFIX 1.211 0.021 C7 O1
DFIX 1.359 0.016 C2 O2
DANG 2.380 0.029 C5 O1
DANG 2.483 0.021 C4 C7
DANG 2.480 0.022 C6 C7
DANG 2.401 0.016 C4 C6
DANG 2.420 0.016 C3 C5
DANG 2.409 0.016 C2 C4
DANG 2.375 0.036 C3 O2
DANG 2.409 0.020 C1 C3
DANG 2.392 0.031 C1 O2
DANG 2.407 0.020 C1 C5
DANG 2.431 0.020 C6 O3
DANG 2.408 0.018 C2 C6
DANG 2.328 0.016 C2 O3
DANG 2.387 0.020 C8 C1
FLAT O1 > C8
SIMU O1 > C8
RIGU O1 > C8
FRAG  17  1  1  1  90  90  90
O1    1      2.603     4.201    -0.840
O2    1      0.728    -1.918    -1.010
O3    1     -0.898    -0.513     0.578
C1    1      0.123     0.181    -0.011
C2    1      0.954    -0.589    -0.836
C3    1      2.023     0.020    -1.484
C4    1      2.263     1.370    -1.315
C5    1      1.444     2.147    -0.498
C6    1      0.368     1.536     0.155
C7    1      1.701     3.582    -0.320
C8    1     -1.787     0.203     1.433
</Vanillin>


<p-Toluidin>
REM Source: GRADE import
REM Name: 4-Nitrobenzaldehyde, C7H5NO3, p-Toluidin
RESI NBA1
DFIX 1.221 0.014 N1 O1
DFIX 1.221 0.014 N1 O2
DFIX 1.211 0.021 C7 O3
DFIX 1.466 0.017 C1 N1
DFIX 1.379 0.012 C1 C2
DFIX 1.379 0.012 C1 C6
DFIX 1.383 0.009 C2 C3
DFIX 1.393 0.011 C3 C4
DFIX 1.393 0.011 C4 C5
DFIX 1.468 0.014 C4 C7
DFIX 1.383 0.009 C5 C6
DANG 2.151 0.022 O1 O2
DANG 2.309 0.021 C1 O1
DANG 2.309 0.021 C1 O2
DANG 2.450 0.021 C2 N1
DANG 2.450 0.021 C6 N1
DANG 2.416 0.018 C2 C6
DANG 2.376 0.016 C1 C3
DANG 2.420 0.016 C2 C4
DANG 2.384 0.018 C3 C5
DANG 2.483 0.021 C3 C7
DANG 2.483 0.021 C5 C7
DANG 2.420 0.016 C4 C6
DANG 2.376 0.016 C1 C5
DANG 2.380 0.029 C4 O3
FLAT C1 N1 C2 C6
FLAT C4 C3 C5 C7
FLAT N1 O1 O2 C1
FLAT O1 N1 C1 C2
FLAT C3 C4 C7 O3
FLAT C1 C2 C3 C4
FLAT C2 C3 C4 C5
FLAT C3 C4 C5 C6
FLAT C4 C5 C6 C1
FLAT C5 C6 C1 C2
FLAT C6 C1 C2 C3
FRAG  17  1  1  1  90  90  90
O1     1      -1.774    -2.586     1.448
O2     1      -2.659    -1.790    -0.343
O3     1       3.639     1.759     0.596
N1     1      -1.765    -1.831     0.488
C1     1      -0.617    -0.923     0.325
C2     1      -0.592    -0.063    -0.755
C3     1       0.491     0.786    -0.901
C4     1       1.542     0.785     0.016
C5     1       1.476    -0.100     1.093
C6     1       0.402    -0.957     1.256
C7     1       2.686     1.692    -0.149
</p-Toluidin>


<cubane_dicarbox>
REM Name: Dimethyl cubane-1,4-dicarboxylate,  C12H12O4
REM Source: GRADE import
RESI DCA1
DFIX 1.198 0.011 C9 O1
DFIX 1.329 0.013 C9 O2
DFIX 1.447 0.013 C10 O2
DFIX 1.198 0.011 C11 O3
DFIX 1.329 0.013 C11 O4
DFIX 1.447 0.013 C12 O4
DFIX 1.566 0.011 C1 C2
DFIX 1.566 0.011 C1 C4
DFIX 1.566 0.011 C1 C8
DFIX 1.497 0.024 C1 C9
DFIX 1.559 0.011 C2 C3
DFIX 1.559 0.011 C2 C7
DFIX 1.559 0.011 C3 C4
DFIX 1.566 0.011 C3 C6
DFIX 1.559 0.011 C4 C5
DFIX 1.566 0.011 C5 C6
DFIX 1.559 0.011 C5 C8
DFIX 1.566 0.011 C6 C7
DFIX 1.497 0.024 C11 C6
DFIX 1.559 0.011 C7 C8
DANG 2.354 0.022 C10 C9
DANG 2.354 0.022 C11 C12
DANG 2.211 0.017 C2 C4
DANG 2.211 0.017 C2 C8
DANG 2.211 0.017 C4 C8
DANG 2.723 0.032 C2 C9
DANG 2.723 0.032 C4 C9
DANG 2.723 0.032 C8 C9
DANG 2.210 0.015 C1 C3
DANG 2.210 0.015 C1 C7
DANG 2.211 0.016 C3 C7
DANG 2.211 0.016 C2 C4
DANG 2.210 0.015 C2 C6
DANG 2.210 0.015 C4 C6
DANG 2.210 0.015 C1 C3
DANG 2.210 0.015 C1 C5
DANG 2.211 0.016 C3 C5
DANG 2.210 0.015 C4 C6
DANG 2.211 0.016 C4 C8
DANG 2.210 0.015 C6 C8
DANG 2.211 0.017 C3 C5
DANG 2.211 0.017 C3 C7
DANG 2.211 0.017 C5 C7
DANG 2.723 0.032 C11 C3
DANG 2.723 0.032 C11 C5
DANG 2.723 0.032 C11 C7
DANG 2.210 0.015 C2 C6
DANG 2.211 0.016 C2 C8
DANG 2.210 0.015 C6 C8
DANG 2.210 0.015 C1 C5
DANG 2.210 0.015 C1 C7
DANG 2.211 0.016 C5 C7
DANG 2.233 0.019 O1 O2
DANG 2.398 0.027 C1 O1
DANG 2.335 0.027 C1 O2
DANG 2.233 0.019 O3 O4
DANG 2.398 0.027 C6 O3
DANG 2.335 0.027 C6 O4
FLAT C11 O3 O4 C6
FLAT C9 O1 O2 C1
FLAT C10 O2 C9 C1
FLAT C10 O2 C9 O1
FLAT C12 O4 C11 C6
FLAT C12 O4 C11 O3
FRAG  17  1  1  1  90  90  90
O1     1       2.827    -0.199    -2.152
O2     1       2.023    -1.609    -0.617
O3     1      -2.975     3.574    -0.573
O4     1      -2.753     2.609     1.429
C1     1       0.850     0.382    -0.933
C2     1       0.397     0.690     0.535
C3     1       0.239     2.198     0.169
C4     1       0.682     1.897    -1.295
C5     1      -0.802     1.636    -1.699
C6     1      -1.255     1.944    -0.231
C7     1      -1.087     0.429     0.132
C8     1      -0.644     0.128    -1.333
C9     1       2.011    -0.480    -1.321
C10    1       3.104    -2.529    -0.904
C11    1      -2.416     2.806     0.157
C12    1      -3.867     3.389     1.923
</cubane_dicarbox>



<9-bromphen>
REM Source: GRADE import
REM Name: 9-Bromophenanthrene, C14H9Br
RESI BPA1
DFIX 1.899 0.016 BR1 C1
DFIX 1.357 0.012 C1 C2
DFIX 1.420 0.011 C1 C14
DFIX 1.415 0.013 C2 C3
DFIX 1.416 0.012 C3 C4
DFIX 1.418 0.009 C3 C8
DFIX 1.362 0.012 C4 C5
DFIX 1.379 0.015 C5 C6
DFIX 1.362 0.012 C6 C7
DFIX 1.404 0.015 C7 C8
DFIX 1.446 0.023 C8 C9
DFIX 1.404 0.015 C10 C9
DFIX 1.419 0.008 C14 C9
DFIX 1.362 0.012 C10 C11
DFIX 1.379 0.015 C11 C12
DFIX 1.362 0.012 C12 C13
DFIX 1.419 0.012 C13 C14
DANG 2.811 0.023 BR1 C2
DANG 2.881 0.020 BR1 C14
DANG 2.431 0.017 C14 C2
DANG 2.409 0.018 C1 C3
DANG 2.477 0.020 C2 C4
DANG 2.451 0.017 C2 C8
DANG 2.449 0.015 C4 C8
DANG 2.416 0.018 C3 C5
DANG 2.379 0.019 C4 C6
DANG 2.379 0.019 C5 C7
DANG 2.410 0.021 C6 C8
DANG 2.414 0.019 C3 C7
DANG 2.465 0.023 C3 C9
DANG 2.499 0.028 C7 C9
DANG 2.499 0.028 C10 C8
DANG 2.480 0.023 C14 C8
DANG 2.416 0.017 C10 C14
DANG 2.410 0.021 C11 C9
DANG 2.379 0.019 C10 C12
DANG 2.379 0.019 C11 C13
DANG 2.421 0.018 C12 C14
DANG 2.428 0.016 C1 C9
DANG 2.508 0.021 C1 C13
DANG 2.450 0.019 C13 C9
FLAT C1 BR1 C2 C14
FLAT C14 C1 C9 C13
FLAT C3 C2 C4 C8
FLAT C8 C3 C7 C9
FLAT C9 C8 C10 C14
FLAT C1 C2 C3 C8
FLAT C2 C3 C8 C9
FLAT C3 C8 C9 C14
FLAT C8 C9 C14 C1
FLAT C9 C14 C1 C2
FLAT C14 C1 C2 C3
FLAT C3 C4 C5 C6
FLAT C4 C5 C6 C7
FLAT C5 C6 C7 C8
FLAT C6 C7 C8 C3
FLAT C7 C8 C3 C4
FLAT C8 C3 C4 C5
FLAT C9 C10 C11 C12
FLAT C10 C11 C12 C13
FLAT C11 C12 C13 C14
FLAT C12 C13 C14 C9
FLAT C13 C14 C9 C10
FLAT C14 C9 C10 C11
FRAG  17  1  1  1  90  90  90
BR1    1       1.617     4.351    -1.744
C1     1       1.106     2.809    -0.759
C2     1       2.070     2.157    -0.058
C3     1       1.768     1.001     0.700
C4     1       2.772     0.322     1.431
C5     1       2.470    -0.790     2.157
C6     1       1.175    -1.272     2.192
C7     1       0.182    -0.642     1.500
C8     1       0.438     0.513     0.731
C9     1      -0.592     1.220    -0.026
C10    1      -1.939     0.798    -0.047
C11    1      -2.889     1.470    -0.759
C12    1      -2.556     2.594    -1.487
C13    1      -1.273     3.047    -1.504
C14    1      -0.252     2.379    -0.777
</9-bromphen>

##-------------------------------------------------------------------



<PT41>
REM Name: PT4, C46H50B2N8O9
REM Produced by Grade Web Server http://grade.globalphasing.org
REM GEN: Generated by GRADE 1.2.7 (February 19 2014)
REM GEN: from mol2 file
REM GEN: using MOGUL 1.6(RC5), CSD as535be, with quantum mechanics AM1
REM grade-cif2shelx output
REM grade-cif2shelx extracts restraints from a grade CIF file
REM Version: 0.0.5 <Dec 20 2013>
REM Total charge set to -5
RESI PT41
DFIX 1.398 0.009 C1 C6
DFIX 1.598 0.009 B7 C1
DFIX 1.398 0.009 C1 C2
DFIX 1.381 0.012 C2 C3
DFIX 1.333 0.011 C3 N4
DFIX 1.333 0.011 C5 N4
DFIX 1.381 0.012 C5 C6
DFIX 1.413 0.030 B7 O33
DFIX 1.410 0.030 B7 O21
DFIX 1.421 0.030 B7 O8
DFIX 1.309 0.030 N9 O8
DFIX 1.272 0.007 C10 N9
DFIX 1.455 0.012 C10 C11
DFIX 1.431 0.013 C11 C12
DFIX 1.397 0.011 C11 C16
DFIX 1.267 0.029 C12 O12A
DFIX 1.431 0.013 C12 C13
DFIX 1.455 0.012 C13 C17
DFIX 1.397 0.011 C13 C14
DFIX 1.391 0.011 C14 C15
DFIX 1.391 0.011 C15 C16
DFIX 1.534 0.006 C15 C15A
DFIX 1.272 0.007 C17 N18
DFIX 1.317 0.030 N18 O19
DFIX 1.416 0.030 B20 O19
DFIX 1.419 0.030 B20 O44
DFIX 1.414 0.030 B20 O32
DFIX 1.598 0.009 B20 C45
DFIX 1.324 0.030 N22 O21
DFIX 1.272 0.007 C23 N22
DFIX 1.455 0.012 C23 C24
DFIX 1.397 0.011 C24 C29
DFIX 1.431 0.013 C24 C25
DFIX 1.267 0.029 C25 O25A
DFIX 1.431 0.013 C25 C26
DFIX 1.397 0.011 C26 C27
DFIX 1.455 0.012 C26 C30
DFIX 1.391 0.011 C27 C28
DFIX 1.391 0.011 C28 C29
DFIX 1.534 0.006 C28 C28A
DFIX 1.272 0.007 C30 N31
DFIX 1.322 0.030 N31 O32
DFIX 1.326 0.030 N34 O33
DFIX 1.272 0.007 C35 N34
DFIX 1.455 0.012 C35 C36
DFIX 1.397 0.011 C36 C41
DFIX 1.431 0.013 C36 C37
DFIX 1.431 0.013 C37 C38
DFIX 1.267 0.029 C37 O37A
DFIX 1.397 0.011 C38 C39
DFIX 1.455 0.012 C38 C42
DFIX 1.391 0.011 C39 C40
DFIX 1.534 0.006 C40 C40A
DFIX 1.391 0.011 C40 C41
DFIX 1.272 0.007 C42 N43
DFIX 1.325 0.030 N43 O44
DFIX 1.398 0.009 C45 C46
DFIX 1.398 0.009 C45 C50
DFIX 1.381 0.012 C46 C47
DFIX 1.333 0.011 C47 N48
DFIX 1.333 0.011 C49 N48
DFIX 1.381 0.012 C49 C50
DFIX 1.531 0.017 C15A C15D
DFIX 1.531 0.017 C15A C15C
DFIX 1.531 0.017 C15A C15B
DFIX 1.531 0.017 C28A C28C
DFIX 1.531 0.017 C28A C28B
DFIX 1.531 0.017 C28A C28D
DFIX 1.531 0.017 C40A C40D
DFIX 1.531 0.017 C40A C40C
DFIX 1.531 0.017 C40A C40B
DANG 2.622 0.019 B7 C6
DANG 2.362 0.018 C2 C6
DANG 2.622 0.019 B7 C2
DANG 2.421 0.014 C1 C3
DANG 2.394 0.018 C2 N4
DANG 2.268 0.019 C3 C5
DANG 2.394 0.018 C6 N4
DANG 2.421 0.014 C1 C5
DANG 2.388 0.054 C1 O33
DANG 2.327 0.055 C1 O21
DANG 2.402 0.053 O21 O33
DANG 2.314 0.056 C1 O8
DANG 2.359 0.054 O33 O8
DANG 2.428 0.053 O21 O8
DANG 2.372 0.051 B7 N9
DANG 2.172 0.045 C10 O8
DANG 2.373 0.019 C11 N9
DANG 2.497 0.022 C10 C12
DANG 2.466 0.020 C10 C16
DANG 2.465 0.019 C12 C16
DANG 2.368 0.030 C11 O12A
DANG 2.419 0.043 C11 C13
DANG 2.368 0.030 C13 O12A
DANG 2.497 0.022 C12 C17
DANG 2.465 0.019 C12 C14
DANG 2.466 0.020 C14 C17
DANG 2.437 0.017 C13 C15
DANG 2.382 0.024 C14 C16
DANG 2.552 0.022 C14 C15A
DANG 2.552 0.022 C15A C16
DANG 2.437 0.017 C11 C15
DANG 2.373 0.019 C13 N18
DANG 2.171 0.045 C17 O19
DANG 2.372 0.051 B20 N18
DANG 2.361 0.054 O19 O44
DANG 2.435 0.053 O19 O32
DANG 2.385 0.054 O32 O44
DANG 2.347 0.055 C45 O19
DANG 2.370 0.054 C45 O44
DANG 2.349 0.055 C45 O32
DANG 2.406 0.050 B7 N22
DANG 2.147 0.046 C23 O21
DANG 2.373 0.019 C24 N22
DANG 2.466 0.020 C23 C29
DANG 2.497 0.022 C23 C25
DANG 2.465 0.019 C25 C29
DANG 2.368 0.030 C24 O25A
DANG 2.387 0.044 C24 C26
DANG 2.368 0.030 C26 O25A
DANG 2.465 0.019 C25 C27
DANG 2.497 0.022 C25 C30
DANG 2.466 0.020 C27 C30
DANG 2.437 0.017 C26 C28
DANG 2.382 0.024 C27 C29
DANG 2.552 0.022 C27 C28A
DANG 2.552 0.022 C28A C29
DANG 2.437 0.017 C24 C28
DANG 2.373 0.019 C26 N31
DANG 2.158 0.046 C30 O32
DANG 2.389 0.051 B20 N31
DANG 2.394 0.051 B7 N34
DANG 2.152 0.046 C35 O33
DANG 2.373 0.019 C36 N34
DANG 2.466 0.020 C35 C41
DANG 2.497 0.022 C35 C37
DANG 2.465 0.019 C37 C41
DANG 2.388 0.044 C36 C38
DANG 2.368 0.030 C36 O37A
DANG 2.368 0.030 C38 O37A
DANG 2.465 0.019 C37 C39
DANG 2.497 0.022 C37 C42
DANG 2.466 0.020 C39 C42
DANG 2.437 0.017 C38 C40
DANG 2.552 0.022 C39 C40A
DANG 2.382 0.024 C39 C41
DANG 2.552 0.022 C40A C41
DANG 2.437 0.017 C36 C40
DANG 2.373 0.019 C38 N43
DANG 2.167 0.046 C42 O44
DANG 2.385 0.051 B20 N43
DANG 2.622 0.019 B20 C46
DANG 2.622 0.019 B20 C50
DANG 2.362 0.018 C46 C50
DANG 2.421 0.014 C45 C47
DANG 2.394 0.018 C46 N48
DANG 2.268 0.019 C47 C49
DANG 2.394 0.018 C50 N48
DANG 2.421 0.014 C45 C49
DANG 2.515 0.030 C15 C15D
DANG 2.515 0.030 C15 C15C
DANG 2.482 0.034 C15C C15D
DANG 2.515 0.030 C15 C15B
DANG 2.482 0.034 C15B C15D
DANG 2.482 0.034 C15B C15C
DANG 2.515 0.030 C28 C28C
DANG 2.515 0.030 C28 C28B
DANG 2.482 0.034 C28B C28C
DANG 2.515 0.030 C28 C28D
DANG 2.482 0.034 C28C C28D
DANG 2.482 0.034 C28B C28D
DANG 2.515 0.030 C40 C40D
DANG 2.515 0.030 C40 C40C
DANG 2.482 0.034 C40C C40D
DANG 2.515 0.030 C40 C40B
DANG 2.482 0.034 C40B C40D
DANG 2.482 0.034 C40B C40C
FLAT C1 C2 C6 B7
FLAT C11 C10 C12 C16
FLAT C13 C12 C14 C17
FLAT C15 C14 C16 C15A
FLAT C24 C23 C25 C29
FLAT C26 C25 C27 C30
FLAT C28 C27 C29 C28A
FLAT C36 C35 C37 C41
FLAT C38 C37 C39 C42
FLAT C40 C39 C41 C40A
FLAT C45 B20 C46 C50
FLAT N9 C10 C11 C12
FLAT C12 C13 C17 N18
FLAT N22 C23 C24 C25
FLAT C25 C26 C30 N31
FLAT N34 C35 C36 C37
FLAT C37 C38 C42 N43
FLAT C12 C11 C13 O12A
FLAT C25 C24 C26 O25A
FLAT C37 C36 C38 O37A
FLAT B7 O8 N9 C10
FLAT O8 N9 C10 C11
FLAT C13 C17 N18 O19
FLAT C17 N18 O19 B20
FLAT B7 O21 N22 C23
FLAT O21 N22 C23 C24
FLAT C23 C24 C29 C28
FLAT C25 C26 C27 C28
FLAT C26 C27 C28 C28A
FLAT C28A C28 C29 C24
FLAT C26 C30 N31 O32
FLAT C30 N31 O32 B20
FLAT B7 O33 N34 C35
FLAT O33 N34 C35 C36
FLAT C35 C36 C41 C40
FLAT C37 C38 C39 C40
FLAT C38 C39 C40 C40A
FLAT C40A C40 C41 C36
FLAT C38 C42 N43 O44
FLAT C1 C2 C3 N4
FLAT C2 C3 N4 C5
FLAT C3 N4 C5 C6
FLAT N4 C5 C6 C1
FLAT C5 C6 C1 C2
FLAT C6 C1 C2 C3
FLAT C11 C12 C13 C14
FLAT C12 C13 C14 C15
FLAT C13 C14 C15 C16
FLAT C14 C15 C16 C11
FLAT C15 C16 C11 C12
FLAT C16 C11 C12 C13
FLAT C45 C46 C47 N48
FLAT C46 C47 N48 C49
FLAT C47 N48 C49 C50
FLAT N48 C49 C50 C45
FLAT C49 C50 C45 C46
FLAT C50 C45 C46 C47
SIMU C1 > C40D
RIGU C1 > C40D
FRAG  17  1  1  1  90  90  90
C1      1    14.809  20.048  17.586
C2      1    13.704  20.493  18.316
C3      1    12.443  20.526  17.751
N4      1    12.188  20.149  16.495
C5      1    13.233  19.724  15.779
C6      1    14.522  19.662  16.273
B7      1    16.282  19.983  18.207
O8      1    16.017  19.266  19.410
N9      1    16.962  19.030  20.290
C10     1    16.565  18.384  21.312
C11     1    17.475  18.032  22.395
C12     1    18.862  18.397  22.312
C13     1    19.670  18.023  23.439
C14     1    19.122  17.341  24.529
C15     1    17.774  17.000  24.590
C16     1    16.970  17.354  23.509
C17     1    21.084  18.379  23.470
N18     1    21.628  19.037  22.527
O19     1    22.911  19.265  22.735
B20     1    23.706  19.988  21.810
O21     1    16.588  21.356  18.314
N22     1    17.685  21.804  18.906
C23     1    17.768  23.073  18.888
C24     1    18.902  23.766  19.487
C25     1    19.945  23.008  20.118
C26     1    21.076  23.773  20.561
C27     1    21.072  25.170  20.510
C28     1    19.997  25.890  19.995
C29     1    18.937  25.164  19.456
C30     1    22.255  23.088  21.077
N31     1    22.304  21.819  21.150
O32     1    23.448  21.371  21.640
O33     1    17.074  19.243  17.297
N34     1    18.386  19.118  17.449
C35     1    18.916  18.423  16.524
C36     1    20.350  18.161  16.499
C37     1    21.189  18.689  17.538
C38     1    22.547  18.224  17.517
C39     1    23.047  17.497  16.432
C40     1    22.245  17.131  15.353
C41     1    20.889  17.436  15.432
C42     1    23.420  18.488  18.655
N43     1    23.006  19.120  19.678
O44     1    23.942  19.264  20.608
C45     1    25.149  20.019  22.499
C46     1    26.309  20.359  21.796
C47     1    27.542  20.373  22.421
N48     1    27.718  20.072  23.711
C49     1    26.622  19.746  24.400
C50     1    25.355  19.710  23.847
O12A    1    19.344  19.002  21.305
C15A    1    17.208  16.276  25.820
C15B    1    17.486  17.086  27.091
C15C    1    17.863  14.900  25.976
C15D    1    15.692  16.067  25.721
O25A    1    19.866  21.753  20.287
C28A    1    20.027  27.425  19.969
C28B    1    18.714  28.018  19.444
C28C    1    21.163  27.920  19.068
C28D    1    20.261  27.978  21.379
O37A    1    20.769  19.528  18.395
C40A    1    22.801  16.346  14.156
C40B    1    24.323  16.177  14.237
C40C    1    22.172  14.950  14.096
C40D    1    22.478  17.072  12.846
</PT41>

<s1p1>
REM Name: S1P, C24H22N4O6S2
REM Produced by Grade Web Server http://grade.globalphasing.org
REM GEN: Generated by GRADE 1.2.7 (February 19 2014)
REM GEN: from mol2 file
REM GEN: using MOGUL 1.6(RC5), CSD as535be, with quantum mechanics RM1
REM grade-cif2shelx output
REM grade-cif2shelx extracts restraints from a grade CIF file
REM Version: 0.0.5 <Dec 20 2013>
REM Total charge set to -2
RESI S1P1
DFIX 1.419 0.010 C2 N1
DFIX 1.275 0.018 C1A N1
DFIX 1.390 0.014 C2 C3
DFIX 1.389 0.011 C2 C7
DFIX 1.388 0.009 C3 C4
DFIX 1.783 0.012 C4 S8
DFIX 1.402 0.008 C4 C5
DFIX 1.494 0.010 C12 C5
DFIX 1.393 0.011 C5 C6
DFIX 1.454 0.013 O9 S8
DFIX 1.453 0.017 O11 S8
DFIX 1.453 0.017 O10 S8
DFIX 1.383 0.009 C6 C7
DFIX 1.402 0.008 C12 C13
DFIX 1.393 0.011 C12 C17
DFIX 1.783 0.012 C13 S19
DFIX 1.388 0.009 C13 C14
DFIX 1.390 0.014 C14 C15
DFIX 1.419 0.010 C15 N18
DFIX 1.389 0.011 C15 C16
DFIX 1.383 0.009 C16 C17
DFIX 1.275 0.018 C18A N18
DFIX 1.454 0.013 O21 S19
DFIX 1.453 0.017 O20 S19
DFIX 1.453 0.017 O22 S19
DFIX 1.389 0.011 C1B C1G
DFIX 1.384 0.010 C1F C1G
DFIX 1.379 0.015 C1E C1F
DFIX 1.378 0.016 C1D C1E
DFIX 1.340 0.011 C1D N1C
DFIX 1.345 0.008 C1B N1C
DFIX 1.468 0.009 C1A C1B
DFIX 1.468 0.009 C18A C18B
DFIX 1.389 0.011 C18B C18H
DFIX 1.345 0.008 C18B N18C
DFIX 1.340 0.011 C18D N18C
DFIX 1.378 0.016 C18D C18F
DFIX 1.379 0.015 C18F C18G
DFIX 1.384 0.010 C18G C18H
DANG 2.340 0.027 C1A C2
DANG 2.431 0.044 C3 N1
DANG 2.440 0.051 C7 N1
DANG 2.403 0.020 C3 C7
DANG 2.415 0.039 C2 C4
DANG 2.720 0.035 C3 S8
DANG 2.405 0.038 C3 C5
DANG 2.814 0.041 C5 S8
DANG 2.527 0.039 C12 C4
DANG 2.421 0.038 C4 C6
DANG 2.484 0.031 C12 C6
DANG 2.594 0.026 C4 O9
DANG 2.595 0.026 C4 O11
DANG 2.416 0.027 O11 O9
DANG 2.595 0.026 C4 O10
DANG 2.416 0.027 O10 O9
DANG 2.418 0.028 O10 O11
DANG 2.407 0.016 C2 C6
DANG 2.407 0.023 C5 C7
DANG 2.526 0.039 C13 C5
DANG 2.484 0.031 C17 C5
DANG 2.419 0.038 C13 C17
DANG 2.811 0.041 C12 S19
DANG 2.406 0.038 C12 C14
DANG 2.720 0.035 C14 S19
DANG 2.415 0.039 C13 C15
DANG 2.431 0.044 C14 N18
DANG 2.403 0.020 C14 C16
DANG 2.440 0.051 C16 N18
DANG 2.407 0.016 C15 C17
DANG 2.407 0.023 C12 C16
DANG 2.340 0.027 C15 C18A
DANG 2.594 0.026 C13 O21
DANG 2.595 0.026 C13 O20
DANG 2.416 0.027 O20 O21
DANG 2.595 0.026 C13 O22
DANG 2.416 0.027 O21 O22
DANG 2.418 0.028 O20 O22
DANG 2.399 0.017 C1B C1F
DANG 2.396 0.019 C1E C1G
DANG 2.367 0.020 C1D C1F
DANG 2.398 0.019 C1E N1C
DANG 2.293 0.015 C1B C1D
DANG 2.394 0.016 C1G N1C
DANG 2.497 0.019 C1A C1G
DANG 2.375 0.017 C1A N1C
DANG 2.397 0.022 C1B N1
DANG 2.397 0.022 C18B N18
DANG 2.497 0.019 C18A C18H
DANG 2.375 0.017 C18A N18C
DANG 2.394 0.016 C18H N18C
DANG 2.293 0.015 C18B C18D
DANG 2.398 0.019 C18F N18C
DANG 2.367 0.020 C18D C18G
DANG 2.396 0.019 C18F C18H
DANG 2.399 0.017 C18B C18G
FLAT C15 C14 C16 N18
FLAT C18B C18A N18C C18H
FLAT C1B C1G N1C C1A
FLAT C2 N1 C3 C7
FLAT C12 C5 C13 C17
FLAT C13 C12 C14 S19
FLAT C4 C3 C5 S8
FLAT C5 C4 C6 C12
FLAT C1A N1 C2 C3
FLAT C14 C15 N18 C18A
FLAT C2 C3 C4 C5
FLAT C3 C4 C5 C6
FLAT C4 C5 C6 C7
FLAT C5 C6 C7 C2
FLAT C6 C7 C2 C3
FLAT C7 C2 C3 C4
FLAT C12 C13 C14 C15
FLAT C13 C14 C15 C16
FLAT C14 C15 C16 C17
FLAT C15 C16 C17 C12
FLAT C16 C17 C12 C13
FLAT C17 C12 C13 C14
FLAT C1G C1F C1E C1D
FLAT C1F C1E C1D N1C
FLAT C1E C1D N1C C1B
FLAT C1D N1C C1B C1G
FLAT N1C C1B C1G C1F
FLAT C1B C1G C1F C1E
FLAT C18B N18C C18D C18F
FLAT N18C C18D C18F C18G
FLAT C18D C18F C18G C18H
FLAT C18F C18G C18H C18B
FLAT C18G C18H C18B N18C
FLAT C18H C18B N18C C18D
FLAT C1B C1A N1 C2
FLAT C18B C18A N18 C15
FLAT C1G C1B C1A N1
FLAT N1 C1A C1B N1C
FLAT C18H C18B C18A N18
FLAT N18 C18A C18B N18C
SIMU N1 > C18H
RIGU N1 > C18H
FRAG  17  1  1  1  90  90  90
N1    1   -6.865  -3.868   0.427
C2    1   -6.046  -2.708   0.383
C3    1   -6.357  -1.589  -0.387
C4    1   -5.510  -0.488  -0.427
C5    1   -4.316  -0.525   0.309
S8    1   -6.040   0.922  -1.386
C7    1   -4.869  -2.721   1.122
C6    1   -4.008  -1.639   1.087
O9    1   -7.139   0.464  -2.221
O10   1   -6.459   1.930  -0.427
O11   1   -4.890   1.340  -2.170
C12   1   -3.317   0.586   0.263
C13   1   -2.237   0.568  -0.634
C14   1   -1.371   1.653  -0.664
C15   1   -1.553   2.742   0.187
C16   1   -2.616   2.737   1.082
C17   1   -3.493   1.668   1.123
N18   1   -0.714   3.889   0.174
S19   1   -1.871  -0.801  -1.721
O20   1   -3.129  -1.183  -2.340
C1G   1   -9.183  -5.325   1.372
C1F   1  -10.354  -5.971   1.719
C1E   1  -11.380  -6.049   0.805
C1D   1  -11.189  -5.480  -0.439
N1C   1  -10.066  -4.838  -0.802
C1B   1   -9.075  -4.759   0.107
C1A   1   -7.898  -3.987  -0.316
O21   1   -0.910  -0.306  -2.693
O22   1   -1.319  -1.850  -0.881
C18A  1    0.226   4.035  -0.682
C18B  1    1.468   4.746  -0.354
N18C  1    2.332   4.901  -1.376
C18D  1    3.515   5.478  -1.104
C18F  1    3.883   5.921   0.152
C18G  1    2.982   5.773   1.182
C18H  1    1.759   5.178   0.934
</s1p1>

<pm41>
REM Name: PM4, C37H32B2N8O9
REM Produced by Grade Web Server http://grade.globalphasing.org
REM GEN: Generated by GRADE 1.2.7 (February 19 2014)
REM GEN: from mol2 file
REM GEN: using MOGUL 1.6(RC5), CSD as535be, with quantum mechanics AM1
REM grade-cif2shelx output
REM grade-cif2shelx extracts restraints from a grade CIF file
REM Version: 0.0.5 <Dec 20 2013>
REM Total charge set to -5
RESI PM41
DFIX 1.398 0.009 C1 C2
DFIX 1.598 0.009 B7 C1
DFIX 1.398 0.009 C1 C6
DFIX 1.381 0.012 C2 C3
DFIX 1.333 0.011 C3 N4
DFIX 1.333 0.011 C5 N4
DFIX 1.381 0.012 C5 C6
DFIX 1.408 0.030 B7 O33
DFIX 1.416 0.030 B7 O8
DFIX 1.420 0.030 B7 O21
DFIX 1.325 0.030 N9 O8
DFIX 1.272 0.007 C10 N9
DFIX 1.455 0.012 C10 C11
DFIX 1.431 0.013 C11 C12
DFIX 1.397 0.011 C11 C16
DFIX 1.431 0.013 C12 C13
DFIX 1.267 0.029 C12 O12A
DFIX 1.455 0.012 C13 C17
DFIX 1.397 0.011 C13 C14
DFIX 1.386 0.010 C14 C15
DFIX 1.509 0.011 C15 C15A
DFIX 1.386 0.010 C15 C16
DFIX 1.272 0.007 C17 N18
DFIX 1.322 0.030 N18 O19
DFIX 1.424 0.030 B20 O19
DFIX 1.415 0.030 B20 O44
DFIX 1.598 0.009 B20 C45
DFIX 1.417 0.030 B20 O32
DFIX 1.318 0.030 N22 O21
DFIX 1.272 0.007 C23 N22
DFIX 1.455 0.012 C23 C24
DFIX 1.431 0.013 C24 C25
DFIX 1.397 0.011 C24 C29
DFIX 1.267 0.029 C25 O25A
DFIX 1.431 0.013 C25 C26
DFIX 1.455 0.012 C26 C30
DFIX 1.397 0.011 C26 C27
DFIX 1.386 0.010 C27 C28
DFIX 1.386 0.010 C28 C29
DFIX 1.509 0.011 C28 C28A
DFIX 1.272 0.007 C30 N31
DFIX 1.316 0.030 N31 O32
DFIX 1.325 0.030 N34 O33
DFIX 1.272 0.007 C35 N34
DFIX 1.455 0.012 C35 C36
DFIX 1.397 0.011 C36 C41
DFIX 1.431 0.013 C36 C37
DFIX 1.431 0.013 C37 C38
DFIX 1.267 0.029 C37 O37A
DFIX 1.397 0.011 C38 C39
DFIX 1.455 0.012 C38 C42
DFIX 1.386 0.010 C39 C40
DFIX 1.509 0.011 C40 C40A
DFIX 1.386 0.010 C40 C41
DFIX 1.272 0.007 C42 N43
DFIX 1.324 0.030 N43 O44
DFIX 1.398 0.009 C45 C50
DFIX 1.398 0.009 C45 C46
DFIX 1.381 0.012 C46 C47
DFIX 1.333 0.011 C47 N48
DFIX 1.333 0.011 C49 N48
DFIX 1.381 0.012 C49 C50
DANG 2.622 0.019 B7 C2
DANG 2.362 0.018 C2 C6
DANG 2.622 0.019 B7 C6
DANG 2.421 0.014 C1 C3
DANG 2.394 0.018 C2 N4
DANG 2.268 0.019 C3 C5
DANG 2.394 0.018 C6 N4
DANG 2.421 0.014 C1 C5
DANG 2.364 0.054 C1 O33
DANG 2.335 0.055 C1 O8
DANG 2.395 0.053 O33 O8
DANG 2.348 0.055 C1 O21
DANG 2.396 0.053 O21 O33
DANG 2.392 0.054 O21 O8
DANG 2.410 0.051 B7 N9
DANG 2.151 0.046 C10 O8
DANG 2.373 0.019 C11 N9
DANG 2.497 0.022 C10 C12
DANG 2.466 0.020 C10 C16
DANG 2.465 0.019 C12 C16
DANG 2.389 0.044 C11 C13
DANG 2.368 0.030 C11 O12A
DANG 2.368 0.030 C13 O12A
DANG 2.497 0.022 C12 C17
DANG 2.465 0.019 C12 C14
DANG 2.466 0.020 C14 C17
DANG 2.435 0.018 C13 C15
DANG 2.520 0.016 C14 C15A
DANG 2.377 0.016 C14 C16
DANG 2.520 0.016 C15A C16
DANG 2.435 0.018 C11 C15
DANG 2.373 0.019 C13 N18
DANG 2.157 0.046 C17 O19
DANG 2.410 0.051 B20 N18
DANG 2.410 0.053 O19 O44
DANG 2.348 0.055 C45 O19
DANG 2.377 0.054 C45 O44
DANG 2.380 0.054 O19 O32
DANG 2.403 0.053 O32 O44
DANG 2.346 0.055 C45 O32
DANG 2.378 0.051 B7 N22
DANG 2.169 0.045 C23 O21
DANG 2.373 0.019 C24 N22
DANG 2.497 0.022 C23 C25
DANG 2.466 0.020 C23 C29
DANG 2.465 0.019 C25 C29
DANG 2.368 0.030 C24 O25A
DANG 2.414 0.043 C24 C26
DANG 2.368 0.030 C26 O25A
DANG 2.497 0.022 C25 C30
DANG 2.465 0.019 C25 C27
DANG 2.466 0.020 C27 C30
DANG 2.435 0.018 C26 C28
DANG 2.377 0.016 C27 C29
DANG 2.520 0.016 C27 C28A
DANG 2.520 0.016 C28A C29
DANG 2.435 0.018 C24 C28
DANG 2.373 0.019 C26 N31
DANG 2.167 0.045 C30 O32
DANG 2.357 0.051 B20 N31
DANG 2.399 0.051 B7 N34
DANG 2.144 0.046 C35 O33
DANG 2.373 0.019 C36 N34
DANG 2.466 0.020 C35 C41
DANG 2.497 0.022 C35 C37
DANG 2.465 0.019 C37 C41
DANG 2.389 0.044 C36 C38
DANG 2.368 0.030 C36 O37A
DANG 2.368 0.030 C38 O37A
DANG 2.465 0.019 C37 C39
DANG 2.497 0.022 C37 C42
DANG 2.466 0.020 C39 C42
DANG 2.435 0.018 C38 C40
DANG 2.520 0.016 C39 C40A
DANG 2.377 0.016 C39 C41
DANG 2.520 0.016 C40A C41
DANG 2.435 0.018 C36 C40
DANG 2.373 0.019 C38 N43
DANG 2.149 0.046 C42 O44
DANG 2.395 0.051 B20 N43
DANG 2.622 0.019 B20 C50
DANG 2.622 0.019 B20 C46
DANG 2.362 0.018 C46 C50
DANG 2.421 0.014 C45 C47
DANG 2.394 0.018 C46 N48
DANG 2.268 0.019 C47 C49
DANG 2.394 0.018 C50 N48
DANG 2.421 0.014 C45 C49
FLAT C1 C2 C6 B7
FLAT C11 C10 C12 C16
FLAT C13 C12 C14 C17
FLAT C15 C14 C16 C15A
FLAT C24 C23 C25 C29
FLAT C26 C25 C27 C30
FLAT C28 C27 C29 C28A
FLAT C36 C35 C37 C41
FLAT C38 C37 C39 C42
FLAT C40 C39 C41 C40A
FLAT C45 B20 C46 C50
FLAT N9 C10 C11 C12
FLAT C12 C13 C17 N18
FLAT N22 C23 C24 C25
FLAT C25 C26 C30 N31
FLAT N34 C35 C36 C37
FLAT C37 C38 C42 N43
FLAT C12 C11 C13 O12A
FLAT C25 C24 C26 O25A
FLAT C37 C36 C38 O37A
FLAT B7 O8 N9 C10
FLAT O8 N9 C10 C11
FLAT C10 C11 C16 C15
FLAT C12 C13 C14 C15
FLAT C13 C14 C15 C15A
FLAT C15A C15 C16 C11
FLAT C13 C17 N18 O19
FLAT C17 N18 O19 B20
FLAT B7 O21 N22 C23
FLAT O21 N22 C23 C24
FLAT C26 C30 N31 O32
FLAT C30 N31 O32 B20
FLAT B7 O33 N34 C35
FLAT O33 N34 C35 C36
FLAT C35 C36 C41 C40
FLAT C37 C38 C39 C40
FLAT C38 C42 N43 O44
FLAT C42 N43 O44 B20
FLAT C1 C2 C3 N4
FLAT C2 C3 N4 C5
FLAT C3 N4 C5 C6
FLAT N4 C5 C6 C1
FLAT C5 C6 C1 C2
FLAT C6 C1 C2 C3
FLAT C24 C25 C26 C27
FLAT C25 C26 C27 C28
FLAT C26 C27 C28 C29
FLAT C27 C28 C29 C24
FLAT C28 C29 C24 C25
FLAT C29 C24 C25 C26
FLAT C45 C46 C47 N48
FLAT C46 C47 N48 C49
FLAT C47 N48 C49 C50
FLAT N48 C49 C50 C45
FLAT C49 C50 C45 C46
FLAT C50 C45 C46 C47
SIMU C1 > C40A
RIGU C1 > C40A
FRAG  17  1  1  1  90  90  90
C1    1   25.184  20.011  22.445
C2    1   26.325  20.361  21.716
C3    1   27.567  20.415  22.319
N4    1   27.772  20.144  23.611
C5    1   26.694  19.808  24.325
C6    1   25.420  19.732  23.795
B7    1   23.728  19.951  21.786
O8    1   23.453  21.333  21.625
N9    1   22.310  21.787  21.131
C10   1   22.261  23.057  21.070
C11   1   21.083  23.743  20.555
C12   1   19.954  22.977  20.103
C13   1   18.872  23.745  19.549
C14   1   18.904  25.142  19.547
C15   1   19.982  25.855  20.045
C16   1   21.067  25.141  20.529
C17   1   17.728  23.060  18.961
N18   1   17.668  21.789  18.921
O19   1   16.563  21.337  18.354
B20   1   16.279  19.946  18.198
O21   1   22.927  19.286  22.756
N22   1   21.642  19.060  22.549
C23   1   21.080  18.452  23.515
C24   1   19.662  18.111  23.484
C25   1   18.863  18.470  22.343
C26   1   17.474  18.103  22.423
C27   1   16.967  17.433  23.540
C28   1   17.764  17.091  24.621
C29   1   19.104  17.440  24.576
C30   1   16.568  18.440  21.331
N31   1   16.972  19.055  20.293
O32   1   16.007  19.273  19.419
O33   1   23.932  19.219  20.598
N34   1   23.003  19.105  19.660
C35   1   23.399  18.395  18.682
C36   1   22.537  18.136  17.535
C37   1   21.220  18.710  17.483
C38   1   20.365  18.163  16.464
C39   1   20.886  17.363  15.443
C40   1   22.232  17.041  15.387
C41   1   23.012  17.332  16.493
C42   1   18.931  18.422  16.503
N43   1   18.406  19.112  17.435
O44   1   17.094  19.229  17.285
C45   1   14.827  20.006  17.530
C46   1   13.697  20.442  18.228
C47   1   12.458  20.492  17.617
N48   1   12.248  20.138  16.346
C49   1   13.316  19.718  15.662
C50   1   14.585  19.639  16.203
O12A  1   19.910  21.714  20.198
C15A  1   19.989  27.364  20.033
O25A  1   19.351  19.060  21.331
C28A  1   17.193  16.352  25.806
O37A  1   20.853  19.651  18.250
C40A  1   22.826  16.385  14.164
</pm41>

