# Fragment database of DSR.py
#
# Some Fragments are from geometry optimizations with Gaussian 03:
#  Gaussian 03, Revision B.04,
#  M. J. Frisch, et. al. Gaussian, Inc., Pittsburgh PA, 2003.
#
# Some with TURBOMOLE V6.0 by K.Eichkorn, O.Treutler, H.Oehm,
#  M.Haeser and R.Ahlrichs (Chemical Physics Letters 242 (1995) 652-660)
#  parallel version: M.v.Arnim  &  R.Ahlrichs quantum chemistry group
#  university  karlsruhe germany
#
# Some are from Ilia A. Guzeis Idealized Molecular Geometry Library:
#  Guzei, Ilia A. 2010. Idealized Molecular Geometry Library.
#  University of Wisconsin-Madison. Madison, WI, USA
#  http://xray.chem.wisc.edu/Projects/IdealizedMolecularGeometry.html
#
# Some are from the Cambridge structural Database:
# Groom, C. R. & Allen, F. H. (2014). Angew. Chem. Int. Ed. 53, 662-671.
# https://www.ccdc.cam.ac.uk/
#
# Some are imported from the Grade Web Server http://grade.globalphasing.org
#
# Other fragments are from in-house measurements.
#
########################################################################################
#   You can insert your own fragments to "dsr_user_db.txt". Just follow this syntax:
########################################################################################
# Database syntax:
# <name>                           <- Start tag.
# RESI class                       <- Required, defines the residue name of db entry.
# RESTRAINTS                       <- Any restraints and comments following the SHELXL syntax.
#                                     You must enter at least one restraint! e.g. RIGU C1 > C7
# FRAG 17 a b c alpha beta gamma   <- FRAG card with afix number and cell parameters.
#      Atom  number  coordinates   <- One isotropic atom per line. 
# e.g.  O1     1       x  y  z     <- Either the atom type is recognized by the atom name for 
#                                     positive numbers.
# e.g.  O1    -8       x  y  z     <- Or the atom type is defined by the negative atomic     
#                                     number.
# </name>                          <- End tag. Same as start tag but with /
#
# - Anything not being an atom after FRAG is ignored.
# - Fragment names CF3, CF6 and CF9 are reserved by DSR. Do not attempt to use them in any
#   database entry.
# - Only lines beginning with valid SHELXL instructions are allowed in the header.
# - Anything behind the 5th column in the atom list is ignored.
# - Long lines can be wrapped with an equal sign (=) and a space character in the next line
#   like in SHELXL, but they can also be of any length. All lines will be wrapped to fit
#   in the SHELXL file automatically.
########################################################################################

<furan>
rem Name: Furan, Furfuran, Oxole, C4H4O
rem Src: CCDC FURANE10
RESI FURA
RIGU O1 > C4
SIMU O1 > C4
SADI O1 C1 O1 C4
SADI C1 C2 C2 C3 C3 C4
SADI 0.04 O1 C3 O1 C2
SADI 0.04 C1 C3 C2 C4
SADI 0.04 C1 C4
FLAT O1 > C4
FRAG 17 1 1 1 90 90 90
O1    8     -0.45290   -0.45290    0.00000
C1    6     -0.40060    0.65720    0.79860
C2    6      0.68000    1.36730    0.52090
C3    6      1.36730    0.68000   -0.52090
C4    6      0.65720   -0.40060   -0.79860
</furan>


<teflat>
rem Name: Pentafluoroorthotellurate, Perfluorotelluroxide Anion, OTeF5-, 
rem Src: Simon Steinhauer, FU Berlin
RESI TEFL
RIGU O1 > F5
SIMU O1 > F5
SADI TE1 F1 TE1 F2 TE1 F3 TE1 F4 TE1 F5
SADI O1 TE1
SADI 0.04 F2 F4 F4 F3 F3 F5 F5 F2
SADI 0.05 F1 F2 F1 F3 F1 F4 F1 F5
SADI 0.05 O1 F2 O1 F3 O1 F4 O1 F5
FRAG 17 1 1 1 90 90 90
O1    8      1.30695   12.97259    6.06273
Te1   52     2.45710   14.34406    6.30216
F1    9      3.63303   15.71819    6.59118
F2    9      2.41687   14.12341    8.12009
F3    9      2.60825   14.70887    4.51675
F4    9      1.11291   15.58101    6.43747
F5    9      3.91920   13.25560    6.22154
</teflat>


<trifluorbenz>
rem Name: 1,2,3-Trifluorobenzene, C6H3F3
rem Src: CCDC 754266
RESI TFBE
RIGU F1 > C6
SIMU F1 > C6
RIGU F1 > C6
SIMU F1 > C6
SADI 0.02 C1 C2 C2 C3 C3 C4 C4 C5 C5 C6 C6 C1
SADI 0.02 C6 F1 C1 F2 C2 F3
SADI 0.04 C1 C3 C3 C5 C5 C1 C2 C4 C4 C6 C6 C2
SADI 0.04 C5 F1 C1 F1 C6 F2 C2 F2 C1 F3 C3 F3
FRAG 17 1 1 1 90 90 90
F1    9      8.96448    4.84810    2.22473
F2    9      6.74155    3.54167    1.62436
F3    9      4.51861    4.84810    1.02400
C1    6      6.74155    4.88287    1.62436
C2    6      5.61207    5.56668    1.32288
C3    6      5.58369    6.92271    1.31444
C4    6      6.74155    7.60072    1.62436
C5    6      7.89940    6.92271    1.93429
C6    6      7.87103    5.56668    1.92585
</trifluorbenz>


<dma>
rem Name: Dimethyl ammonium, C2H8N+
rem Src: CCDC QEHPOL
RESI DMA
SADI N1 C1 N1 C2
SADI 0.04 C1 C2
SIMU N1 > C2
RIGU N1 > C2
FRAG 17 1 1 1 90 90 90
N1    7      9.87801    6.58129    0.91953
C1    6     11.07355    6.06146    0.22242
C2    6      9.61381    5.92324    2.21098
</dma>

<tbuisocyan>
rem Name: tert-Butyl isocyanide, t-BuNC, C5H9N
rem Src: Daniel Kratzert, Freiburg
RESI TBNC
SIMU C1 > C5
RIGU C1 > C5
SADI C1 N1
SADI N1 C2
SADI C2 C3 C2 C4 C2 C5
SADI 0.04 C3 C4 C4 C5 C5 C3
SADI 0.05 N1 C3 N1 C4 N1 C5
FRAG 17 1 1 1 90 90 90
C1    6      8.17276   11.90151   16.26337
N1    7      8.40408   12.60251   17.12966
C2    6      8.68213   13.54392   18.23346
C3    6      7.35141   14.16823   18.61785
C4    6      9.25330   12.70401   19.37174
C5    6      9.67538   14.54799   17.72350
</tbuisocyan>


<DTBPY>
REM Name: 4,4'-Di-tert-butyl-2,2'-bipyridine, DTBPY, C18H24N2
REM Src: Daniel Kratzert, Freiburg
RESI TBPY
SADI 0.02 N1 C1 N1 C5 N2 C6 N2 C10
SADI 0.02 C1 C2 C2 C3 C3 C4 C4 C5 C6 C7 C7 C8 C8 C9 C9 C10
SADI 0.02 C11 C12 C11 C13 C11 C14 C15 C16 C15 C17 C15 C18
SADI 0.02 C5 C6
SADI 0.04 N1 C4 N1 C2 N2 C7 N2 C9
SADI 0.04 C1 C3 C8 C10
SADI 0.04 C2 C4 C7 C9
SADI 0.04 C3 C5 C6 C8
SADI 0.04 C1 C5 C6 C10
SADI 0.04 N1 C6 N2 C5
SADI 0.04 C4 C6 C5 C7
SADI 0.02 C8 C15 C3 C11
SADI 0.04 C3 C12 C3 C13 C3 C14 C8 C16 C8 C17 C8 C18
FLAT N1 > C10
SIMU N1 > C10
RIGU N1 > C10
FRAG 17 1 1 1 90 90 90
N1    7     24.32004   24.96216   20.67961
C1    6     25.54284   24.38377   20.77784
C2    6     25.96724   23.44670   19.87666
C3    6     25.16839   23.07481   18.81378
C4    6     23.92540   23.69518   18.69921
C5    6     23.51638   24.61841   19.64788
C6    6     22.20898   25.31744   19.62389
C7    6     21.22643   25.10400   18.66267
C8    6     19.99646   25.75200   18.76981
C9    6     19.81143   26.62653   19.82999
C10   6     20.84213   26.84554   20.73017
N2    7     22.00344   26.18397   20.64606
C11   6     25.59319   22.03968   17.76975
C12   6     26.92062   21.32472   18.18426
C13   6     24.50548   20.96386   17.61436
C14   6     25.81282   22.79891   16.44497
C15   6     18.89417   25.56716   17.70003
C16   6     18.81329   24.09015   17.29055
C17   6     19.24973   26.42635   16.47860
C18   6     17.54065   26.01836   18.22818
</DTBPY>


<tempo>
rem Name: (2,2,6,6-Tetramethylpiperidin-1-yl)oxyl, TEMPO, C9H18NO
rem Src: CCDC ELARAL
RESI TEMP
RIGU N1 > C9
SIMU N1 > C9
SADI N1 O1
SADI 0.04 C1 O1 C5 O1
SADI C1 N1 N1 C5
SADI C1 C6 C1 C7 C5 C8 C5 C9
SADI C1 C2 C2 C3 C3 C4 C4 C5
SADI 0.04 N1 C4 N1 C2
SADI 0.04 C1 C3 C3 C5
SADI 0.04 N1 C7 N1 C6 N1 C8 N1 C9
SADI 0.04 C6 C7 C8 C9
FRAG 17 1 1 1 90 90 90
N1    7      6.79050    5.94450    2.24000
O1    8      6.16550    5.90100    1.12250
C1    6      8.13100    6.59250    2.22550
C2    6      8.57200    6.85850    3.65700
C3    6      8.38700    5.68150    4.57850
C4    6      6.92550    5.32000    4.62800
C5    6      6.34400    4.94750    3.26250
C6    6      9.11600    5.67650    1.48800
C7    6      7.99900    7.90900    1.47150
C8    6      4.82200    5.00050    3.32150
C9    6      6.77800    3.54550    2.82450
</tempo>


<thiophen>
rem Name: Thiophen, Thiofuran, C4H4S
rem Src: Turbomole V7.1, def2-TZVP/pbe0
RESI THIO
SIMU S1 > C4
RIGU S1 > C4
SADI 0.02 S1 C1 S1 C4
SADI 0.03 C1 C2 C2 C3 C3 C4
SADI 0.04 C1 C3 C2 C4
SADI 0.04 S1 C2 S1 C3
FLAT S1 C1 C2 C3 C4
FRAG 17 1 1 1 90 90 90
S1    16     0.53456   -0.37592    0.00001
C1    6      1.18298   -1.95313   -0.00077
C2    6      2.54669   -1.93110   -0.00103
C3    6      3.06659   -0.61273   -0.00068
C4    6      2.08496    0.33421   -0.00005
</thiophen>

<tetfluorbenz>
rem Name: 1,2,3,4-Tetrafluorobenzene, C6H2F4
rem Src: CCDC ZELDOJ, http://dx.doi.org/10.1002/anie.199515171
RESI TFB
SIMU F1 > C6
RIGU F1 > C6
FLAT F1 > C6
SADI 0.02 C1 C2 C2 C3 C3 C4 C4 C5 C5 C6 C6 C1
SADI 0.02 C1 F1 C2 F2 C3 F3 C4 F4
SADI 0.04 C1 C3 C3 C5 C5 C1 C2 C6 C6 C4 C2 C4
SADI 0.05 C2 F1 C6 F1 C1 F2 C3 F2 C2 F3 C4 F3 C3 F4 C5 F4
FRAG 17 1 1 1 90 90 90
F1    9     -0.05082    3.99263    9.22109
F2    9      2.12407    3.76804    7.63932
F3    9      2.00186    2.33130    5.34763
F4    9     -0.31846    1.20384    4.57893
C1    6     -0.14903    3.28787    8.07414
C2    6      0.97513    3.17369    7.28547
C3    6      0.91082    2.45683    6.11633
C4    6     -0.28216    1.87911    5.74585
C5    6     -1.40500    1.99934    6.52120
C6    6     -1.33620    2.71166    7.70809
</tetfluorbenz>


<so2>
rem Name: Sulfur dioxide, SO2
rem Src: CCDC VOLZIH
RESI SO2
RIGU S1 > O2
SIMU S1 > O2
SADI 0.01 S1 O1 S1 O2
FRAG 17 1 1 1 90 90 90
S1    16     3.12800    3.60460    3.93639
O1    8      3.27267    3.46118    5.35073
O2    8      1.97377    4.32718    3.50301
</so2>


<plusminus>
rem Name: Methyl tert-butyl ether, plus minus ether, C5H12O
rem Src: CCDC ESEYIL
RESI PLMI
SIMU O1 > C5
RIGU O1 > C5
SADI 0.02 C1 C5
SADI 0.03 C1 C2 C1 C3 C1 C4
SADI 0.04 O1 C2 O1 C3 O1 C4
SADI 0.04 C2 C3 C3 C4 C4 C4
FRAG 17 1 1 1 90 90 90
O1    8      4.01221    5.88576    6.38316
C1    6      4.42964    6.57575    7.57025
C2    6      3.83689    7.95194    7.44363
C3    6      5.92586    6.59903    7.77827
C4    6      3.73072    5.69415    8.57419
C5    6      4.49275    6.31057    5.12371
</plusminus>


<ether3>
rem Name: Diethyl ether (another conformer), C4H10O
rem Src: CCDC URUNAY
RESI DIET
SADI 0.01 O1 C1 O1 C3
SADI 0.02 C1 C2 C3 C4
SADI 0.04 O1 C2 O1 C4
SIMU O1 > C4
RIGU O1 > C4
FRAG 17 1 1 1 90 90 90
O1    8     -0.47991    6.09522    8.92668
C1    6     -1.64987    6.82741    9.37082
C2    6     -2.91757    6.38949    8.68882
C3    6     -0.40513    4.76941    9.44311
C4    6      0.97807    4.22479    9.20453
</ether3>

<ether2>
rem Name: Diethyl ether (zigzag conformer), C4H10O
rem Src: CCDC 1472895
RESI DIET
SADI 0.01 O1 C1 O1 C3
SADI 0.02 C1 C2 C3 C4
SADI 0.04 O1 C2 O1 C4
SIMU O1 > C4
RIGU O1 > C4
FRAG 17 1 1 1 90 90 90
C1    6      7.40855    5.44415    4.94001
C2    6      6.03294    5.91279    5.32362
O1    8      7.39946    4.67211    3.72730
C3    6      7.39037    5.44415    2.51458
C4    6      8.76598    5.91279    2.13097
</ether2>


<hexabenz>
rem Name: Hexamethylbenzene, Mellitene, C12H18
rem Src: CCDC EXEDOC
RESI HMBE
RIGU C1 > C12
SIMU C1 > C12
SADI 0.02 C1 C7 C2 C8 C3 C9 C4 C10 C5 C11 C6 C12
SADI 0.02 C1 C2 C2 C3 C3 C4 C4 C5 C5 C6 C6 C1
SADI 0.04 C1 C3 C1 C5 C3 C5 C4 C2 C4 C6 C2 C6
SADI 0.04 C7 C2 C7 C6 C8 C3 C8 C1 C9 C2 C9 C4 C10 C3 C10 C5 C11 C4 C11 C6 C12 C5 C12 C1
FRAG 17 1 1 1 90 90 90
C1    6     -1.44289    2.34376   10.18321
C2    6     -1.51515    1.61093   11.41879
C3    6     -0.72017    0.44250   11.56420
C4    6      0.07924   -0.05233   10.47122
C5    6      0.11582    0.66920    9.25748
C6    6     -0.62769    1.89016    9.11959
C7    6     -2.25396    3.60784   10.08184
C8    6     -2.42359    2.13653   12.50216
C9    6     -0.68344   -0.32235   12.87616
C10   6      0.83291   -1.36330   10.60019
C11   6      0.96689    0.21120    8.10438
C12   6     -0.46654    2.65125    7.82860
</hexabenz>

<SBF6>
rem Name: Hexafluoroantimony, [SbF6]-, SbF6
rem Src: Stefan Meyer, Freiburg
RESI SBF6
SADI 0.02 SB1 F1 SB1 F2 SB1 F3 SB1 F4 SB1 F5 SB1 F6
SADI 0.04 F1 F2 F1 F3 F1 F4 F1 F5 F2 F3 F2 F5 F2 F6 F3 F4 F3 F6 F4 F5 F4 F6 F5 F6
RIGU SB1 > F6
SIMU SB1 > F6
FRAG 17 1 1 1 90 90 90
SB1 51 3.16696  0.00000  8.25938
F1  9  4.47589  1.31458  7.97485
F2  9  3.33721 -0.55433  6.46867
F3  9  1.84678  1.22562  7.74615
F4  9  2.99671  0.55433  10.05010
F5  9  4.48714 -1.22562  8.77262
F6  9  1.85803 -1.31458  8.54392
</SBF6>


<26dcb>
rem Name: 2,6-Dichlorobenzene, C6H3Cl2
rem Src: CCDC IRUDUW
RESI DCB
RIGU CL1 > C6
SIMU CL1 > C6
FLAT CL1 > C6
SADI 0.02 C2 Cl2 C6 Cl1
SADI 0.04 C1 Cl1 C5 Cl1 C1 Cl2 C3 Cl2
SADI 0.02 C1 C2 C2 C3 C3 C4 C4 C5 C5 C6 C6 C1
SADI 0.04 C1 C3 C3 C5 C5 C1 C2 C4 C4 C6 C6 C2
FRAG 17 1 1 1 90 90 90
Cl1   17     3.75835    4.89899    8.61530
Cl2   17     2.79635    8.97662    5.19815
C1    6      3.37299    6.97909    6.93077
C2    6      3.76181    8.22300    6.41408
C3    6      4.89314    8.88350    6.86932
C4    6      5.64670    8.31598    7.88906
C5    6      5.28914    7.09168    8.43388
C6    6      4.16246    6.44065    7.95446
</26dcb>

<dce>
rem Name: 1,2-Dichloroethane (flat), DCE, Ethylene dichloride, C2H4Cl2
rem Src: CCDC IVAHEU
RESI DCE
RIGU CL1 > CL2
SIMU CL1 > CL2
SADI 0.02 CL1 C1 CL2 C2
SADI 0.04 Cl1 C2 Cl2 C1
SADI 0.02 C1 C2
FRAG 17 1 1 1 90 90 90
Cl1   17     5.56277    0.17443    6.77637
C1    6      4.43508    0.61098    8.04319
C2    6      4.17196   -0.61098    8.92915
Cl2   17     3.04427   -0.17443   10.19596
</dce>

<dce2>
rem Name: 1,2-Dichloroethane (angled), DCE, Ethylene dichloride, C2H4Cl2
rem Src: CCDC BUHXUZ
RESI DCE
RIGU CL1 > CL2
SIMU CL1 > CL2
SADI 0.02 CL1 C1 CL2 C2
SADI 0.04 Cl1 C2 Cl2 C1
SADI 0.02 C1 C2
FRAG 17 1 1 1 90 90 90
Cl1   17     0.93368    4.51606   26.34032
C1    6      1.37188    3.98348   24.69602
C2    6      0.36001    4.39393   23.68050
Cl2   17    -1.19315    3.56767   23.90879
</dce2>


<tmeda1>
rem Name: Tetramethylethylenediamine coordinated, TMEDA, C6H16N2
rem Src: CCDC EVUGAF
RESI TME1
RIGU C1 > C6
SIMU C1 > C6
SADI 0.02 C1 N1 C2 N1 C5 N2 C6 N2 N1 C3 N2 C4
SADI 0.02 C3 C4
FRAG 17 1 1 1 90 90 90
C1    6     -0.38577   -1.44740    2.73940
C2    6      1.62017   -1.37649    4.04577
N1    7      0.14817   -1.38349    4.10960
C3    6     -0.29651   -2.54636    4.89258
C4    6     -1.77513   -2.54636    5.20771
N2    7     -2.21980   -1.38349    5.99068
C5    6     -3.69180   -1.37649    6.05451
C6    6     -1.68587   -1.44740    7.36089
</tmeda1>

<tmeda2>
rem Name: Tetramethylethylenediamine free, TMEDA, C6H16N2
rem Src: CSD MOGUL 1.7.2 conformer search
RESI TME2
RIGU C1 > C6
SIMU C1 > C6
SADI 0.02 C1 N1 C2 N1 C5 N2 C6 N2 N1 C3 N2 C4
SADI 0.02 C3 C4
FRAG 17 1 1 1 90 90 90
C1    6      9.98664    2.97159    5.58953
C2    6      8.13163    2.76495    4.05940
N1    7      8.57478    3.30037    5.39783
C3    6      7.73112    2.78562    6.49624
C4    6      6.27148    3.30674    6.40339
N2    7      5.39994    2.73530    5.39166
C5    6      4.12145    3.43624    5.33265
C6    6      5.16898    1.31172    5.56459
</tmeda2>


<isoprop>
rem Name: Isopropanole, Propan-2-ol, C3H8O
rem Src: CCDC 12671777
rem Temp: 173 K
SADI C1 C2  C1 C3
SADI 0.02 C1 O1
DANG 2.3732 O1 C3
DANG 2.4353 O1 C2
DANG 2.5114 C2 C3
RESI ISOP 
FRAG 17 6.1744  14.915  19.453  87.55  84.37  88.94
O1   1  0.7435  0.2855  0.4937
C1   1  0.8016  0.1938  0.5063
C2   1  0.6173  0.1314  0.5064
C3   1  0.9955  0.1713  0.4565
</isoprop>


<fluorbenz>
rem Name: Fluorobenzene, C6H5F
rem Src: CCDC FACFAQ
SADI 0.02 C1 C2 C2 C3 C3 C4 C4 C5 C5 C6 C6 C1
SADI 0.04 C1 C3 C1 C5 C3 C5 C2 C6 C2 C4 C4 C6
SADI 0.04 C2 F1 C6 F1
SADI 0.02 C1 F1
FLAT F1 > C6
SIMU F1 > C6
RIGU F1 > C6
RESI FBE
FRAG 17 5.799 5.799 14.53 90 90 90
F1    3   0.824080   0.824080   0.000000   0.50000   0.05000
C1    1   0.990400   0.990400   0.000000   0.50000   0.05000
C2    1   1.180900   0.959100   0.055170   1.00000   0.05000
C3    1   1.349000   1.129700   0.054930   1.00000   0.05000
C4    1   1.323900   1.323900   0.000000   0.50000   0.05000
C5    1   1.129700   1.349000  -0.054930   1.00000   0.05000
C6    1   0.959100   1.180900  -0.055170   1.00000   0.05000
</fluorbenz>

<cod>
rem Name: 1,5-cyclooctadiene, COD, C8H12
rem Src: Miriam Schwab, Freiburg
RESI COD
SIMU C1 > C8
RIGU C1 > C8
SADI 0.02 C2 C1 C6 C5
SADI 0.02 C8 C1 C3 C2 C7 C6 C5 C4 C8 C7 C3 C4
SADI 0.05 C1 C3 C1 C7 C2 C4 C2 C8 C3 C5 C4 C6 C5 C7 C6 C8
FRAG 17 1 1 1 90 90 90
C1 6 3.65575 14.54827 13.45130
C2 6 2.30722 14.30194 13.51353
C3 6 1.61804 13.32113 14.45120
C4 6 1.41273 11.93324 13.82242
C5 6 2.56428 11.46903 12.98337
C6 6 3.88832 11.68732 13.21117
C7 6 4.48403 12.35221 14.42806
C8 6 4.72651 13.85137 14.23558
</cod>

<pmdeta>
REM Src: CCDC DUQJIJ
REM Name: N,N,N',N'',N''-pentamethyldiethylenetriamine, PMDETA, C9H23N3
SADI N1 C1 N1 C2 N1 C3 N2 C4 N2 C5 N2 C6 N3 C7 N3 C8 N3 C9
SADI C3 C4 C6 C7
SADI 0.04 C1 C2 C8 C9 C1 C3 C2 C3 C7 C8 C7 C9 C4 C6 C6 C5 C5 C4
SADI 0.04 N3 C6 N2 C7 N2 C3 N1 C4
RESI PMDT
RIGU N1 > C9
SIMU N1 > C9
FRAG 17 8.4887 14.884 14.588 90 96.039 90
N1     4  0.109310  0.104270  0.323520  1.000000 0.05000
N2     4  0.450180  0.116700  0.357190  1.000000 0.05000
N3     4  0.390740  0.176990  0.163690  1.000000 0.05000
C1     1  0.046430  0.146990  0.402670  1.000000 0.05000
C2     1 -0.023120  0.076760  0.256360  1.000000 0.05000
C3     1  0.205660  0.024980  0.352960  1.000000 0.05000
C4     1  0.362280  0.050320  0.407100  1.000000 0.05000
C5     1  0.571540  0.161490  0.420480  1.000000 0.05000
C6     1  0.524170  0.073370  0.281050  1.000000 0.05000
C7     1  0.544220  0.139300  0.203740  1.000000 0.05000
C8     1  0.298090  0.108100  0.109210  1.000000 0.05000
C9     1  0.422150  0.251280  0.101700  1.000000 0.05000
</pmdeta>


<dmap>
rem Name: N,N-Dimethylpyridin-4-amin, 4-N,N-Dimethylaminopyridin, DMAP, C7H10N2
rem Src: CCDC BUNDIZ
RESI DMAP
SADI C1 C2 C4 C5
SADI C2 C3 C3 C4
SADI N2 C6 N2 C7
SADI 0.02 C3 N2
SADI N1 C1 N1 C5
FLAT N1 > C7
SIMU N1 > C7
RIGU N1 > C7
FRAG 17 1 1 1 90 90 90
N1    7     -3.61555   19.50266    7.97428
N2    7     -1.75196   23.25760    8.08188
C1    6     -2.29126   19.63251    8.10681
C2    6     -1.61291   20.82363    8.14487
C3    6     -2.34102   22.03803    8.03425
C4    6     -3.72977   21.89817    7.87718
C5    6     -4.30100   20.64532    7.85093
C6    6     -0.30687   23.40677    8.15668
C7    6     -2.53658   24.47838    8.01890
</dmap>

<pyrazine>
REM Src: CCDC GUDSUV
REM Name: Pyrazine, 1,4-Diazabenzene, 1,4-Diazine, C4H4N2
RESI PYRC
SADI C1 C2 C3 C4
SADI C1 N1 C4 N1 C2 N2 C3 N2
SADI 0.04 N1 C2 N1 C3 N2 C1 N2 C4
FLAT N1 > C4
SIMU N1 > C4
RIGU N1 > C4
FRAG 17 10.7669 10.7894 6.8101 90 117.396 90
N1      3  0.330400  0.434200  0.475100  1.000000 0.05000
N2      3  0.398600  0.683100  0.487000  1.000000 0.05000
C1      1  0.457900  0.470600  0.510300  1.000000 0.05000
C2      1  0.492500  0.595100  0.515900  1.000000 0.05000
C3      1  0.270800  0.648100  0.453700  1.000000 0.05000
C4      1  0.236200  0.523300  0.446300  1.000000 0.05000
</pyrazine>

<ptbu>
rem Name: tris-(tert-butyle)-phosphane, C12H27P
rem Src: Miriam Schwab, Freiburg
RESI PTBU
SADI 0.02 P1 C1 P1 C5 P1 C9
SADI 0.02 C1 C2 C1 C3 C1 C4 C5 C6 C5 C7 C5 C8 C9 C10 C9 C11 C9 C12
SADI 0.04 P1 C2 P1 C3 P1 C4 P1 C6 P1 C7 P1 C8 P1 C10 P1 C11 P1 C12
SADI 0.04 C2 C3 C3 C4 C4 C2 C6 C7 C7 C8 C8 C6 C10 C11 C11 C12 C12 C10
SADI 0.04 C1 C5 C5 C9 C9 C1
SIMU P1 > C12
RIGU P1 > C12
FRAG 17 1 1 1 90 90 90
P1 15 1.77300 12.41700 11.03600
C1 6 3.23800 11.28000 11.05400
C2 6 2.81700 9.94100 11.68500
C3 6 4.45800 11.75800 11.87600
C4 6 3.68900 11.00800 9.60700
C5 6 1.95900 13.85200 9.77500
C6 6 3.37100 14.48900 9.84900
C7 6 1.70000 13.27000 8.36000
C8 6 0.89200 14.91000 10.10600
C9 6 1.45600 13.15800 12.77500
C10 6 2.42600 14.31400 13.07200
C11 6 0.02400 13.65800 12.84100
C12 6 1.62800 12.03400 13.82200
</ptbu>

<imi>
REM Name: N-methylimidazole, 1-methylimidazole, C4H6N2
REM Source: Daniel Kratzert, Freiburg
rem Restraints from atom connectivities:
DFIX 1.3477 C2   C3
DFIX 1.3815 C2   N1
DFIX 1.3739 C3   N2
DFIX 1.3152 N1   C1
DFIX 1.4820 N1   C4
DFIX 1.3333 C1   N2
DANG 2.1858 N1   C3
DANG 2.1314 N1   N2
DANG 2.1823 N2   C2
DANG 2.2097 C1   C2
DANG 2.4952 C1   C4
DANG 2.2141 C1   C3
DANG 2.5263 C2   C4
FLAT N1 N2 C1 C2 C3 C4
RESI IMI
FRAG 17 1 1 1 90 90 90
N1    7     2.72600   12.24300   16.86100
N2    7     4.78700   12.50300   16.38400
C1    6     3.91900   11.71100   17.01400
C2    6     2.81400   13.39000   16.09600
C3    6     4.12100   13.56200   15.81600
C4    6     1.45100   11.69500   17.38100
</imi>

<dmac>
REM Name: N,N-dimethylacetylamide, C4H9NO, DMA
REM Src: Produced by Grade Web Server http://grade.globalphasing.org
DFIX  1.220 0.005 C2 O1
DFIX  1.497 0.005 C2 C3
DFIX  1.322 0.005 C2 N4
DFIX  1.459 0.005 C5 N4
DFIX  1.459 0.005 C6 N4
FLAT O1 > C6
RESI DMAC
FRAG 17 1 1 1 90 90 90
O1    1    8.0500  -1.2400  -1.0600
C2    1    7.9400  -2.4600  -1.0900
C3    1    6.6000  -3.1200  -1.0400
N4    1    9.0300  -3.2300  -1.1800
C5    1    8.9500  -4.6900  -1.2000
C6    1   10.3800  -2.6700  -1.2500
</dmac>

<phen>
rem Name: Phenanthroline, 1,10-phenanthroline, C12H8N2
rem Src: CCDC ASUGAW01
RIGU N1 > C12
SIMU N1 > C12
SADI N1 C1 N1 C12 N2 C11 N2 C10
SADI C1 C2 C2 C3 C3 C4 C4 C5 C5 C6 C6 C7 C7 C8 C8 C9 C9 C10 C11 C12
SADI 0.04 C1 C12 C10 C11
FLAT N1 > C12
SADI 0.04 C3 C12 C2 C4 C1 C3 C12 C5 C11 C4 C6 C11 C5 C7 C4 C6 C7 C12 C8 C10 C7 C9 C8 C11
SADI 0.05 N1 C2 N1 C4 N2 C7 N2 C9
RESI PHEN
FRAG 17  8.515 12.058 17.046 90 101.675 90
N1      3  0.986600  0.156100  0.765000  1.000000 0.05000
N2      3  0.873300  0.156200  0.899200  1.000000 0.05000
C1      1  1.051800  0.158400  0.701100  1.000000 0.05000
C2      1  1.089600  0.060700  0.662400  1.000000 0.05000
C3      1  1.057000 -0.040400  0.692100  1.000000 0.05000
C4      1  0.989500 -0.046500  0.761100  1.000000 0.05000
C5      1  0.950900 -0.147200  0.797000  1.000000 0.05000
C6      1  0.885700 -0.147300  0.863400  1.000000 0.05000
C7      1  0.853700 -0.045600  0.900000  1.000000 0.05000
C8      1  0.791000 -0.037500  0.970200  1.000000 0.05000
C9      1  0.767900  0.064300  1.002100  1.000000 0.05000
C10     1  0.811800  0.160300  0.964200  1.000000 0.05000
C11     1  0.892400  0.055500  0.867400  1.000000 0.05000
C12     1  0.957800  0.055300  0.795800  1.000000 0.05000
</phen>

<crypt>
REM Src: CCDC ZOMFAK
REM Name: [2.2.2]-cryptand, C18H36N2O6, crypt
RESI CRY
SADI O1 C2 O1 C3 O2 C4 O2 C5 O3 C8 O3 C9 O4 C10 O4 C11 O5 C14 O5 C15 O6 C16 O6 C17
SADI N1 C1 N1 C7 N1 C13 N2 C6 N2 C12 N2 C18
SADI C1 C2 C3 C4 C5 C6 C7 C8 C9 C10 C11 C12 C13 C14 C15 C16 C17 C18
SADI 0.04 C2 C3 C4 C5 C8 C9 C10 C11 C14 C15 C16 C17
SADI 0.04 O1 C1 O1 C4 O2 C3 O2 C6 O3 C7 O3 C10 O4 C9 O4 C12 O5 C13 O5 C16 O6 C15 O6 C18
SADI 0.04 N1 C2 N1 C14 N1 C8 N2 C5 N2 C11 N2 C17
SIMU O1 > C18
RIGU O1 > C18
FRAG 17  10.7585 17.4741 15.2091 90 110.286 90
O1  1 1.1904  0.1183   0.19714
O2  1 0.9883  0.1098   0.27866
O3  1 0.9113  0.1264  -0.09205
O4  1 0.7180  0.0803  -0.01357
O5  1 1.0170  0.3232   0.07339
O6  1 0.7822  0.2922   0.11362
N1  1 1.1636  0.1978   0.02320
N2  1 0.7105  0.1426   0.16715
C1  1 1.2726  0.1477   0.07416
C2  1 1.3031  0.1462   0.17884
C3  1 1.2172  0.1112   0.29585
C4  1 1.1085  0.0669   0.31099
C5  1 0.8804  0.0680   0.28923
C6  1 0.7625  0.1196   0.26658
C7  1 1.1211  0.1803  -0.07771
C8  1 1.0347  0.1104  -0.10379
C9  1 0.8167  0.0676  -0.13049
C10 1 0.6923  0.0850  -0.11244
C11 1 0.5992  0.0913   0.00655
C12 1 0.6289  0.0811   0.11037
C13 1 1.2060  0.2782   0.03898
C14 1 1.0931  0.3343   0.01358
C15 1 0.9059  0.3734   0.04813
C16 1 0.8374  0.3672   0.11750
C17 1 0.7160  0.2850   0.17987
C18 1 0.6325  0.2138   0.15722
</crypt>

<dbant>
REM Src: CCDC DBANTH12
REM Name: 9,10-Dibromoanthracene, C14H8Br2
SIMU Br1 > C10A
RIGU Br1 > C10A
FLAT Br1 > C10A
RESI DBAN
SADI 0.02 C9 Br1 C10 Br2
SADI 0.04 Br1 C8A Br1 C9A Br2 C4A Br2 C10A
SADI 0.02 C1 C2 C2 C3 C3 C4 C4 C4A C4A C10 C10 C10A C10A C5 C5 C6 =
 C6 C7 C7 C8 C8 C8A C8A C9 C9 C9A C9A C1 C4A C9A C8A C10A
SADI 0.04 C1 C3 C2 C4 C4 C10 C4 C9A C4A C3 C4A C10A C10 C9A C10 C5 =
 C10 C8A C5 C8A C5 C7 C6 C8 C7 C8A C8 C10A C6 C10A C8 C9 C9 C1 C9 C10A =
 C9 C4A C8A C9A C1 C4A C9A C2
FRAG 17 3.9739 8.7989 16.0872 78.915 83.942 80.816
Br1   3   0.355330   0.166480   0.121289   1.00000   0.05000
Br2   3   0.644670   0.833520  -0.121289   1.00000   0.05000
C1    1   0.075600   0.503900   0.154560   1.00000   0.05000
C2    1  -0.055600   0.641300   0.179710   1.00000   0.05000
C3    1   0.013100   0.785300   0.128960   1.00000   0.05000
C4    1   0.210600   0.787100   0.054250   1.00000   0.05000
C4A   1   0.356500   0.645600   0.025550   1.00000   0.05000
C5    1   0.924400   0.496100  -0.154560   1.00000   0.05000
C6    1   1.055600   0.358700  -0.179710   1.00000   0.05000
C7    1   0.986900   0.214700  -0.128960   1.00000   0.05000
C8    1   0.789400   0.212900  -0.054250   1.00000   0.05000
C8A   1   0.643500   0.354400  -0.025550   1.00000   0.05000
C9    1   0.437500   0.359500   0.050270   1.00000   0.05000
C9A   1   0.290000   0.498800   0.077630   1.00000   0.05000
C10   1   0.562500   0.640500  -0.050270   1.00000   0.05000
C10A  1   0.710000   0.501200  -0.077630   1.00000   0.05000
</dbant>

<anthracene>
REM Src: CCDC ANTCEN09
REM Name: Anthracene, C14H10
RESI ANTR
SIMU C1 > C10A
RIGU C1 > C10A
FLAT C1 > C10A
SADI 0.02 C1 C2 C2 C3 C3 C4 C4 C4A C4A C10 C10 C10A C10A C5 C5 C6 =
 C6 C7 C7 C8 C8 C8A C8A C9 C9 C9A C9A C1 C4A C9A C8A C10A
SADI 0.04 C1 C3 C2 C4 C4 C10 C4 C9A C4A C3 C4A C10A C10 C9A C10 C5 =
 C10 C8A C5 C8A C5 C7 C6 C8 C7 C8A C8 C10A C6 C10A C8 C9 C9 C1 C9 C10A =
 C9 C4A C8A C9A C1 C4A C9A C2
FRAG 17 8.4144 5.9903 11.0953 90 125.293 90
C1    1  -0.060200  -0.264300   0.183400   1.00000   0.05000
C2    1  -0.004900  -0.186300   0.317400   1.00000   0.05000
C3    1   0.086100   0.026600   0.368100   1.00000   0.05000
C4    1   0.117200   0.155500   0.283000   1.00000   0.05000
C4A   1   0.058500   0.081400   0.139800   1.00000   0.05000
C5    1   0.060200   0.264300  -0.183400   1.00000   0.05000
C6    1   0.004900   0.186300  -0.317400   1.00000   0.05000
C7    1  -0.086100  -0.026600  -0.368100   1.00000   0.05000
C8    1  -0.117200  -0.155500  -0.283000   1.00000   0.05000
C8A   1  -0.058500  -0.081400  -0.139800   1.00000   0.05000
C9    1  -0.087000  -0.211100  -0.049100   1.00000   0.05000
C9A   1  -0.030700  -0.134300   0.089600   1.00000   0.05000
C10   1   0.087000   0.211100   0.049100   1.00000   0.05000
C10A  1   0.030700   0.134300  -0.089600   1.00000   0.05000
</anthracene>

<C20>
REM Name: Fullerene-C20, C20
Rem Src: Tubomole BP86/SV(P)
REM Syst. Numbering from http://www.chem.qmul.ac.uk/iupac/fullerene/Fu01t03.html
RESI C20
SADI 0.02 C18 C9 C11 C19 C13 C12 C8 C7 C14 C4 C6 C5
SADI 0.02 C20 C13 C20 C19 C17 C18 C17 C7 C11 C10 C9 C10 C8 C1 C14 =
          C15 C15 C6 C12 C3 C3 C4 C1 C5
SADI 0.02 C17 C16 C3 C2 C20 C16 C16 C15 C2 C1 C2 C10
SADI 0.02 C18 C19 C11 C12 C13 C14 C9 C8 C7 C6 C5 C4
SADI 0.04 C1 C7 C1 C6 C3 C13 C3 C14 C4 C15 C5 C15 C8 C17 C9 C17 C10 C18 C10 C19 C11 C20 C12 C20
SADI 0.04 C1 C3 C1 C10 C3 C10 C15 C20 C15 C17 C17 C20 C2 C12 C2 C4 =
          C7 C16 C16 C18 C2 C8 C2 C5 C2 C9 C2 C11 C6 C16 C13 C16 C14 C16 C16 C19
SADI 0.04 C4 C13 C5 C14 C6 C8 C7 C9 C8 C18 C9 C19 C11 C13 C12 C14 C4 C6 =
          C5 C7 C11 C18 C12 C19 C1 C9 C1 C4 C3 C11 C3 C5 C6 C17 C7 C15 C8 =
          C10 C10 C12 C13 C15 C14 C20 C17 C19 C18 C20
SADI 0.04 C4 C12 C7 C18 C5 C8 C6 C14 C9 C11 C13 C19
FLAT C13 C14 C15 C16
FLAT C14 C15 C16 C20
FLAT C14 C4 C5 C6
FLAT C14 C15 C4 C5
FLAT C10 C2 C8 C9
FLAT C1 C10 C8 C9
FLAT C10 C11 C19 C9
FLAT C10 C11 C12 C3
FLAT C17 C18 C8 C9
FLAT C1 C6 C7 C8
FLAT C1 C5 C7 C8
FLAT C1 C2 C3 C5
FLAT C1 C2 C4 C5
SIMU C1 > C20
RIGU C1 > C20
FRAG 17 5.9316 5.66214 5.91544 90 90 90
C1    1     0.19870  0.12018 -0.24521  11.00000  0.04000
C2    1    -0.00000  0.00000 -0.33095  11.00000  0.04000
C3    1     0.00000 -0.24035 -0.24521  11.00000  0.04000
C4    1     0.20327 -0.27795 -0.11162  11.00000  0.04000
C5    1     0.33141 -0.04544 -0.11162  11.00000  0.04000
C6    1     0.33141  0.04544  0.11162  11.00000  0.04000
C7    1     0.20327  0.27795  0.11162  11.00000  0.04000
C8    1     0.12814  0.32339 -0.11162  11.00000  0.04000
C9    1    -0.12814  0.32339 -0.11162  11.00000  0.04000
C10   1    -0.19870  0.12018 -0.24521  11.00000  0.04000
C11   1    -0.33141 -0.04544 -0.11162  11.00000  0.04000
C12   1    -0.20327 -0.27795 -0.11162  11.00000  0.04000
C13   1    -0.12814 -0.32339  0.11162  11.00000  0.04000
C14   1     0.12814 -0.32339  0.11162  11.00000  0.04000
C15   1     0.19870 -0.12018  0.24521  11.00000  0.04000
C16   1    -0.00000  0.00000  0.33095  11.00000  0.04000
C17   1     0.00000  0.24035  0.24521  11.00000  0.04000
C18   1    -0.20327  0.27795  0.11162  11.00000  0.04000
C19   1    -0.33141  0.04544  0.11162  11.00000  0.04000
C20   1    -0.19870 -0.12018  0.24521  11.00000  0.04000
</C20>

<C60>
REM Name: Fullerene-C60, C60, Buckminsterfullerene, (C60-Ih)[5,6]fullerene
REM Src: B. T. King, M. M. Olmstead, K. K. Baldridge, B. Kumar, A. L. Balch,
rem Src: J. A. Gharamaleki, Chem. Commun. 2012, 48, 9882-9884.
REM DOI: 10.1039/C2CC34472F
REM Syst. Numbering from http://www.chem.qmul.ac.uk/iupac/fullerene/Fu01t03.html
RESI C60
SADI 0.02 C6  C5  C8  C7  C9  C1  C11 C10 C12 C2  C13 C14 C15 C3  C17 C16 C18 C4  C19 C20 =
          C22 C23 C24 C25 C26 C27 C28 C29 C30 C31 C33 C32 C35 C34 C37 C36 C39 C38 C40 C21 =
          C42 C41 C44 C45 C46 C58 C47 C48 C51 C50 C52 C60 C54 C53 C55 C56 C57 C43 C59 C49
SADI 0.02 C1  C5  C2  C1  C3  C4  C3  C2  C5  C4  C6  C20 C7  C6  C7  C22 C8  C25 C9  C8  =
          C10 C9  C10 C26 C11 C29 C12 C11 C13 C30 C13 C12 C14 C33 C15 C16 C15 C14 C17 C37 =
          C18 C17 C19 C38 C19 C18 C20 C21 C22 C21 C23 C24 C26 C25 C27 C28 C30 C29 C31 C48 =
          C31 C32 C34 C16 C34 C33 C35 C36 C38 C37 C39 C40 C40 C41 C42 C23 C42 C43 C44 C24 =
          C44 C43 C45 C46 C45 C27 C46 C47 C47 C28 C48 C49 C50 C49 C50 C32 C51 C35 C52 C51 =
          C53 C52 C53 C36 C54 C39 C55 C54 C55 C41 C57 C58 C57 C56 C59 C60 C59 C58 C60 C56
SADI 0.04 C2  C5  C8  C10 C13 C29 C15 C34 C18 C37 C20 C22 C24 C43 C27 C46 C32 C48 C39 C41 =
          C51 C53 C56 C59 C2  C4  C3  C5  C6  C22 C7  C20 C8  C26 C10 C25 C11 C13 C12 C29 =
          C14 C34 C15 C33 C18 C38 C19 C37 C23 C43 C24 C42 C27 C47 C28 C46 C32 C49 C35 C53 =
          C36 C51 C39 C55 C41 C54 C48 C50 C56 C58 C57 C59 C1  C3  C1  C4  C6  C21 C7  C21 =
          C9  C25 C9  C26 C11 C30 C12 C30 C14 C16 C16 C33 C17 C38 C17 C19 C23 C44 C28 C45 =
          C31 C49 C31 C50 C35 C52 C36 C52 C40 C54 C40 C55 C42 C44 C45 C47 C57 C60 C58 C60
SADI 0.04 C1  C12 C1  C6  C2  C15 C2  C13 C3  C16 C4  C17 C5  C20 C5  C18 C7  C9  C8  C22 =
          C8  C24 C9  C11 C10 C27 C10 C29 C13 C15 C14 C30 C16 C35 C17 C36 C18 C20 C19 C21 =
          C21 C23 C22 C24 C25 C44 C26 C45 C27 C29 C28 C30 C31 C47 C31 C33 C32 C34 C32 C51 =
          C34 C51 C37 C53 C37 C39 C38 C40 C39 C53 C40 C42 C41 C56 C41 C43 C43 C56 C44 C57 =
          C45 C58 C46 C48 C46 C59 C48 C59 C49 C60 C50 C52 C52 C54 C55 C60 C1  C8  C1  C10 =
          C2  C11 C2  C9  C3  C18 C4  C15 C5  C9  C5  C7  C6  C8  C10 C12 C13 C31 C13 C33 =
          C14 C32 C15 C17 C16 C37 C16 C18 C17 C34 C19 C39 C20 C38 C20 C40 C21 C39 C21 C41 =
          C22 C42 C22 C40 C23 C41 C24 C45 C24 C26 C25 C27 C27 C44 C28 C48 C29 C47 C29 C31 =
          C30 C48 C30 C32 C34 C36 C35 C37 C43 C45 C43 C58 C44 C46 C46 C57 C49 C51 C50 C59 =
          C51 C60 C52 C56 C52 C59 C53 C55 C53 C60 C54 C56 C3  C12 C3  C14 C4  C19 C4  C6  =
          C6  C19 C7  C23 C7  C25 C11 C28 C11 C26 C12 C14 C23 C25 C26 C28 C33 C35 C33 C50 =
          C35 C50 C36 C38 C36 C54 C38 C54 C42 C55 C42 C57 C47 C49 C47 C58 C49 C58 C55 C57
FLAT  C1  C5  C6  C9
FLAT  C1  C2  C3  C5
FLAT  C1  C2  C11 C12
FLAT  C1  C5  C6  C7
FLAT  C2  C10 C11 C12
FLAT  C4  C5  C6  C18
FLAT  C5  C6  C7  C8
FLAT  C6  C7  C20 C21
FLAT  C7  C8  C22 C23
FLAT  C8  C9  C10 C25
FLAT  C8  C9  C25 C26
FLAT  C11 C13 C29 C30
FLAT  C11 C12 C29 C30
FLAT  C14 C15 C33 C34
FLAT  C14 C15 C16 C33
FLAT  C17 C18 C19 C37
FLAT  C17 C18 C37 C38
FLAT  C24 C25 C26 C44
FLAT  C25 C26 C27 C45
FLAT  C27 C28 C45 C46
FLAT  C27 C45 C46 C47
FLAT  C31 C48 C49 C50
FLAT  C32 C33 C50 C51
FLAT  C32 C48 C49 C50
FLAT  C34 C35 C50 C51
FLAT  C36 C51 C52 C53
FLAT  C39 C40 C54 C55
FLAT  C39 C40 C41 C54
FLAT  C41 C42 C55 C56
FLAT  C41 C42 C43 C57
FLAT  C46 C47 C48 C58
FLAT  C46 C47 C48 C49
FLAT  C49 C52 C59 C60
FLAT  C50 C51 C52 C60
RIGU C1 > C60
SIMU C1 > C60
FRAG 17 50 50 50 90 90 90
C1    1    -0.06959 -0.01398  0.00000  11.00000  0.04000
C2    1    -0.06062 -0.02850  0.02348  11.00000  0.04000
C3    1    -0.04611 -0.05199  0.01451  11.00000  0.04000
C4    1    -0.04611 -0.05199 -0.01451  11.00000  0.04000
C5    1    -0.06062 -0.02850 -0.02348  11.00000  0.04000
C6    1    -0.05199 -0.01451 -0.04611  11.00000  0.04000
C7    1    -0.05199  0.01451 -0.04611  11.00000  0.04000
C8    1    -0.06062  0.02850 -0.02348  11.00000  0.04000
C9    1    -0.06959  0.01398  0.00000  11.00000  0.04000
C10   1    -0.06062  0.02850  0.02348  11.00000  0.04000
C11   1    -0.05199  0.01451  0.04611  11.00000  0.04000
C12   1    -0.05199 -0.01451  0.04611  11.00000  0.04000
C13   1    -0.02850 -0.02348  0.06062  11.00000  0.04000
C14   1    -0.01451 -0.04611  0.05199  11.00000  0.04000
C15   1    -0.02348 -0.06062  0.02850  11.00000  0.04000
C16   1     0.00000 -0.06959  0.01398  11.00000  0.04000
C17   1     0.00000 -0.06959 -0.01398  11.00000  0.04000
C18   1    -0.02348 -0.06062 -0.02850  11.00000  0.04000
C19   1    -0.01451 -0.04611 -0.05199  11.00000  0.04000
C20   1    -0.02850 -0.02348 -0.06062  11.00000  0.04000
C21   1    -0.01398  0.00000 -0.06959  11.00000  0.04000
C22   1    -0.02850  0.02348 -0.06062  11.00000  0.04000
C23   1    -0.01451  0.04611 -0.05199  11.00000  0.04000
C24   1    -0.02348  0.06062 -0.02850  11.00000  0.04000
C25   1    -0.04611  0.05199 -0.01451  11.00000  0.04000
C26   1    -0.04611  0.05199  0.01451  11.00000  0.04000
C27   1    -0.02348  0.06062  0.02850  11.00000  0.04000
C28   1    -0.01451  0.04611  0.05199  11.00000  0.04000
C29   1    -0.02850  0.02348  0.06062  11.00000  0.04000
C30   1    -0.01398  0.00000  0.06959  11.00000  0.04000
C31   1     0.01398  0.00000  0.06959  11.00000  0.04000
C32   1     0.02850 -0.02348  0.06062  11.00000  0.04000
C33   1     0.01451 -0.04611  0.05199  11.00000  0.04000
C34   1     0.02348 -0.06062  0.02850  11.00000  0.04000
C35   1     0.04611 -0.05199  0.01451  11.00000  0.04000
C36   1     0.04611 -0.05199 -0.01451  11.00000  0.04000
C37   1     0.02348 -0.06062 -0.02850  11.00000  0.04000
C38   1     0.01451 -0.04611 -0.05199  11.00000  0.04000
C39   1     0.02850 -0.02348 -0.06062  11.00000  0.04000
C40   1     0.01398  0.00000 -0.06959  11.00000  0.04000
C41   1     0.02850  0.02348 -0.06062  11.00000  0.04000
C42   1     0.01451  0.04611 -0.05199  11.00000  0.04000
C43   1     0.02348  0.06062 -0.02850  11.00000  0.04000
C44   1     0.00000  0.06959 -0.01398  11.00000  0.04000
C45   1     0.00000  0.06959  0.01398  11.00000  0.04000
C46   1     0.02348  0.06062  0.02850  11.00000  0.04000
C47   1     0.01451  0.04611  0.05199  11.00000  0.04000
C48   1     0.02850  0.02348  0.06062  11.00000  0.04000
C49   1     0.05199  0.01451  0.04611  11.00000  0.04000
C50   1     0.05199 -0.01451  0.04611  11.00000  0.04000
C51   1     0.06062 -0.02850  0.02348  11.00000  0.04000
C52   1     0.06959 -0.01398  0.00000  11.00000  0.04000
C53   1     0.06062 -0.02850 -0.02348  11.00000  0.04000
C54   1     0.05199 -0.01451 -0.04611  11.00000  0.04000
C55   1     0.05199  0.01451 -0.04611  11.00000  0.04000
C56   1     0.06062  0.02850 -0.02348  11.00000  0.04000
C57   1     0.04611  0.05199 -0.01451  11.00000  0.04000
C58   1     0.04611  0.05199  0.01451  11.00000  0.04000
C59   1     0.06062  0.02850  0.02348  11.00000  0.04000
C60   1     0.06959  0.01398  0.00000  11.00000  0.04000
</C60>

<C70>
REM Name: Fullerene-C70, rugbyballene, (C70-D5h)[5,6]fullerene, C70
REM Src: L. N. Wirz, R. Tonner, A. Hermann, R. Sure, P. Schwerdtfeger,
REM Src: J. Comput. Chem. 2016, 37, 10-17.
REM Syst. Numbering from http://www.chem.qmul.ac.uk/iupac/fullerene/Fu01t03.html
REM DOI: 10.1002/jcc.23894
REM D5h, isomer 8149, E = -2662.40103868
RESI C70
SADI 0.02 C62 C63 C68 C67 C28 C48 C7  C22 C43 C42 C57 C38 C17 C18 C32 C52 C10 C9  C15 C14 =
          C54 C53 C34 C33 C36 C37 C44 C45 C55 C56 C25 C8 C16 C35 C27 C26 C46 C47 C24 C23
SADI 0.02 C41 C21 C39 C19 C1 C6 C3 C4 C31 C13 C29 C11 C69 C58 C61 C60 C49 C64 C51 C66
SADI 0.02 C68 C69 C31 C32 C29 C28 C13 C14 C11 C10 C62 C61 C67 C66 C7  C6  C58 C57 C60 C43 =
          C17 C4 C52 C51 C48 C49 C41 C42 C21 C22 C39 C38 C19 C18 C9 C1 C3 C15 C63 C64
SADI 0.02 C54 C55 C54 C34 C45 C46 C26 C46 C34 C35 C36 C35 C36 C55 C45 C24 C25 C26 C25 C24
SADI 0.02 C40 C59 C70 C65 C30 C50 C12 C2 C20 C5
SADI 0.02 C21 C20 C31 C30 C30 C29 C13 C12 C11 C12 C69 C70 C61 C70 C58 C59 C59 C60 C20 C19 =
          C5 C6 C5 C4 C50 C51 C50 C49 C64 C65 C65 C66 C41 C40 C40 C39 C1 C2 C2 C3
SADI 0.02 C28 C27 C44 C43 C7  C8  C57 C56 C33 C14 C33 C32 C17 C16 C38 C37 C27 C10 C42 C23 =
          C68 C56 C44 C62 C67 C53 C53 C52 C8 C9 C16 C15 C22 C23 C18 C37 C48 C47 C47 C63
SADI 0.04 C10 C28 C9  C7  C17 C15 C67 C52 C32 C14 C48 C63 C62 C43 C42 C22 C18 C38 C57 C68 C10 =
          C29 C9  C6  C1  C7  C3  C17 C48 C64 C28 C11 C31 C14 C13 C32 C62 C60 C66 C52 C51 C67 =
          C42 C21 C43 C61 C58 C68 C69 C57 C22 C41 C19 C38 C39 C18 C4  C15 C63 C49
SADI 0.04 C1 C3 C29 C31 C11 C13 C64 C66 C49 C51 C60 C58 C61 C69 C21 C19 C41 C39 C6 C4
SADI 0.04 C63 C61 C9  C11 C48 C29 C28 C49 C31 C52 C13 C15 C62 C64 C66 C68 C51 C32 C42 C60 C58 =
          C38 C69 C67 C22 C6  C4  C18 C10 C1  C3  C14 C43 C41 C7  C21 C19 C17 C39 C57 C27 C9  =
          C8  C22 C18 C16 C33 C15 C27 C48 C10 C8  C47 C28 C47 C62 C44 C63 C44 C42 C23 C7  C23 =
          C43 C37 C57 C37 C17 C56 C38 C53 C68 C53 C32 C33 C52 C16 C14 C56 C67 C27 C46 C27 C25 =
          C26 C47 C47 C45 C46 C44 C44 C24 C45 C23 C23 C25 C24 C8  C37 C35 C37 C55 C36 C16 C36 =
          C56 C56 C54 C55 C53 C53 C34 C54 C33 C33 C35 C26 C8  C34 C16 C10 C26 C26 C28 C9  C25 =
          C48 C46 C62 C45 C45 C43 C42 C24 C24 C22 C7  C25 C18 C36 C17 C35 C36 C38 C57 C55 C55 =
          C68 C54 C52 C32 C34 C34 C14 C15 C35 C46 C63 C67 C54
SADI 0.04 C46 C25 C46 C24 C36 C54 C54 C35 C26 C45 C26 C24 C45 C25 C36 C34 C55 C35 C55 C34 C8  =
          C6  C4  C16 C27 C11 C27 C29 C1  C8  C3  C16 C47 C49 C47 C64 C31 C33 C13 C33 C44 C61 =
          C44 C60 C66 C53 C51 C53 C23 C21 C23 C41 C58 C56 C69 C56 C19 C37 C39 C37
SADI 0.04 C2  C11 C2  C13 C29 C50 C30 C51 C30 C49 C31 C50 C64 C70 C65 C69 C65 C61 C66 C70 C60 =
          C40 C58 C40 C21 C5  C19 C5  C1  C12 C3  C12 C59 C39 C59 C41 C20 C6  C20 C4  C1  C5  =
          C3  C5  C30 C13 C30 C11 C64 C50 C66 C50 C20 C39 C20 C41 C2  C6  C2  C4  C29 C12 C31 =
          C12 C65 C49 C65 C51 C60 C70 C59 C69 C59 C61 C58 C70 C21 C40 C19 C40
SADI 0.04 C10 C12 C9  C2  C2  C15 C48 C50 C28 C30 C30 C32 C12 C14 C62 C70 C63 C65 C65 C67 C50 =
          C52 C42 C40 C43 C59 C59 C57 C70 C68 C7  C5  C22 C20 C20 C18 C40 C38 C5  C17
FLAT  C1  C11 C12 C2
FLAT  C1  C7  C8  C9
FLAT  C6  C7  C8  C9
FLAT  C10 C11 C27 C28
FLAT  C10 C27 C28 C29
FLAT  C11 C12 C13 C29
FLAT  C13 C14 C31 C33
FLAT  C13 C14 C32 C33
FLAT  C14 C15 C16 C33
FLAT  C15 C16 C17 C4
FLAT  C15 C16 C34 C35
FLAT  C16 C17 C3  C4
FLAT  C16 C17 C18 C37
FLAT  C18 C35 C36 C37
FLAT  C19 C20 C39 C40
FLAT  C21 C22 C41 C42
FLAT  C22 C23 C24 C25
FLAT  C24 C26 C45 C46
FLAT  C24 C25 C45 C46
FLAT  C24 C25 C7  C8
FLAT  C28 C29 C30 C48
FLAT  C28 C29 C30 C50
FLAT  C29 C30 C49 C50
FLAT  C32 C33 C52 C53
FLAT  C32 C33 C34 C54
FLAT  C36 C37 C55 C56
FLAT  C40 C41 C42 C59
FLAT  C40 C41 C42 C43
FLAT  C41 C42 C43 C60
FLAT  C43 C44 C60 C61
FLAT  C43 C60 C61 C62
FLAT  C44 C47 C62 C63
FLAT  C45 C46 C47 C63
FLAT  C46 C47 C62 C63
FLAT  C47 C49 C63 C64
FLAT  C48 C49 C63 C64
FLAT  C49 C50 C51 C64
FLAT  C51 C52 C53 C66
FLAT  C51 C52 C53 C67
FLAT  C56 C58 C68 C69
FLAT  C57 C58 C68 C69
FLAT  C61 C62 C63 C70
FLAT  C63 C64 C65 C70

SIMU C1 > C70
RIGU C1 > C70
FRAG 17 50 50 50 90 90 90
C1    1    -0.02428 -0.00010  0.06973  11.00000  0.04000
C2    1     0.00000  0.01499  0.07000  11.00000  0.04000
C3    1     0.02428 -0.00010  0.06973  11.00000  0.04000
C4    1     0.02428 -0.02834  0.06371  11.00000  0.04000
C5    1     0.00000 -0.04223  0.05780  11.00000  0.04000
C6    1    -0.02428 -0.02834  0.06371  11.00000  0.04000
C7    1    -0.04907 -0.03453  0.04991  11.00000  0.04000
C8    1    -0.06468 -0.01013  0.04753  11.00000  0.04000
C9    1    -0.04907  0.01118  0.05965  11.00000  0.04000
C10   1    -0.04907  0.03680  0.04827  11.00000  0.04000
C11   1    -0.02428  0.05183  0.04664  11.00000  0.04000
C12   1    -0.00000  0.04192  0.05803  11.00000  0.04000
C13   1     0.02428  0.05183  0.04664  11.00000  0.04000
C14   1     0.04907  0.03680  0.04827  11.00000  0.04000
C15   1     0.04907  0.01118  0.05965  11.00000  0.04000
C16   1     0.06468 -0.01013  0.04753  11.00000  0.04000
C17   1     0.04907 -0.03453  0.04991  11.00000  0.04000
C18   1     0.04907 -0.05328  0.02907  11.00000  0.04000
C19   1     0.02428 -0.06635  0.02145  11.00000  0.04000
C20   1     0.00000 -0.06194  0.03589  11.00000  0.04000
C21   1    -0.02428 -0.06635  0.02145  11.00000  0.04000
C22   1    -0.04907 -0.05328  0.02907  11.00000  0.04000
C23   1    -0.06468 -0.04834  0.00505  11.00000  0.04000
C24   1    -0.07971 -0.02465  0.00258  11.00000  0.04000
C25   1    -0.07971 -0.00517  0.02424  11.00000  0.04000
C26   1    -0.07971  0.02145  0.01240  11.00000  0.04000
C27   1    -0.06468  0.04207  0.02432  11.00000  0.04000
C28   1    -0.04907  0.06019  0.00780  11.00000  0.04000
C29   1    -0.02428  0.06628  0.02164  11.00000  0.04000
C30   1    -0.00000  0.07121  0.00737  11.00000  0.04000
C31   1     0.02428  0.06628  0.02164  11.00000  0.04000
C32   1     0.04907  0.06019  0.00780  11.00000  0.04000
C33   1     0.06468  0.04207  0.02432  11.00000  0.04000
C34   1     0.07971  0.02145  0.01240  11.00000  0.04000
C35   1     0.07971 -0.00517  0.02423  11.00000  0.04000
C36   1     0.07971 -0.02465  0.00258  11.00000  0.04000
C37   1     0.06468 -0.04834  0.00505  11.00000  0.04000
C38   1     0.04907 -0.05814 -0.01742  11.00000  0.04000
C39   1     0.02428 -0.06935 -0.00727  11.00000  0.04000
C40   1     0.00000 -0.06802 -0.02230  11.00000  0.04000
C41   1    -0.02428 -0.06935 -0.00727  11.00000  0.04000
C42   1    -0.04907 -0.05814 -0.01742  11.00000  0.04000
C43   1    -0.04907 -0.04411 -0.04169  11.00000  0.04000
C44   1    -0.06468 -0.01974 -0.04441  11.00000  0.04000
C45   1    -0.07971 -0.01007 -0.02264  11.00000  0.04000
C46   1    -0.07971  0.01842 -0.01657  11.00000  0.04000
C47   1    -0.06468  0.03614 -0.03250  11.00000  0.04000
C48   1    -0.04907  0.05727 -0.02008  11.00000  0.04000
C49   1    -0.02428  0.06037 -0.03488  11.00000  0.04000
C50   1    -0.00000  0.06814 -0.02194  11.00000  0.04000
C51   1     0.02428  0.06037 -0.03488  11.00000  0.04000
C52   1     0.04907  0.05727 -0.02008  11.00000  0.04000
C53   1     0.06468  0.03614 -0.03250  11.00000  0.04000
C54   1     0.07971  0.01842 -0.01657  11.00000  0.04000
C55   1     0.07971 -0.01007 -0.02264  11.00000  0.04000
C56   1     0.06468 -0.01974 -0.04441  11.00000  0.04000
C57   1     0.04907 -0.04411 -0.04169  11.00000  0.04000
C58   1     0.02428 -0.04090 -0.05647  11.00000  0.04000
C59   1     0.00000 -0.05327 -0.04782  11.00000  0.04000
C60   1    -0.02428 -0.04090 -0.05647  11.00000  0.04000
C61   1    -0.02428 -0.01452 -0.06820  11.00000  0.04000
C62   1    -0.04907 -0.00140 -0.06067  11.00000  0.04000
C63   1    -0.04907  0.02602 -0.05483  11.00000  0.04000
C64   1    -0.02428  0.04107 -0.05635  11.00000  0.04000
C65   1    -0.00000  0.02902 -0.06544  11.00000  0.04000
C66   1     0.02428  0.04107 -0.05635  11.00000  0.04000
C67   1     0.04907  0.02602 -0.05483  11.00000  0.04000
C68   1     0.04907 -0.00140 -0.06067  11.00000  0.04000
C69   1     0.02428 -0.01452 -0.06820  11.00000  0.04000
C70   1    -0.00000  0.00019 -0.07159  11.00000  0.04000
</C70>


<PFADAMO>
REM Name: Perfluoroadamantol, C10O1F15
REM Source: Olaf Petersen, Freiburg
SADI 0.02  O1 C1
SADI C1 C2 C1 C3 C1 C4
SADI C2 C9 C3 C7 C4 C5
SADI C5 C6 C6 C7 C7 C8 C8 C9 C9 C10 C10 C5
SADI 0.03 C2 F1 C2 F2 C3 F3 C3 F4 C4 F5 C4 F6 C5 F7 C6 F8 C6 F9 C7 F10 =
          C8 F11 C8 F12 C9 F13 C10 F14 C10 F15
SADI 0.04 C1 C5 C1 C7 C1 C9
SADI 0.04 C2 C3 C3 C4 C2 C4 C5 C7 C7 C9 C9 C5 C6 C8 C8 C10 C10 C6 =
          C2 C8 C2 C10 C3 C6 C3 C8 C4 C10 C4 C6
SADI 0.04 F1 F2  F3 F4  F5 F6
SADI 0.04 F8 F9 F11 F12 F14 F15
SADI 0.04 F7 C6 F7 C10 F10 C6 F10 C8 F13 C8 F13 C10
SIMU O1 > F15
RIGU O1 > F15
RESI ADAM
FRAG 17 12.0095  22.0262  20.4662   90.000  100.829   90.000
O1   1     0.70183   0.26712   0.55878   11.0   0.04
C1   2     0.76073   0.31301   0.54023   11.0   0.04
C2   2     0.84566   0.33887   0.59810   11.0   0.04
F1   3     0.79069   0.36168   0.64624   11.0   0.04
F2   3     0.92118   0.29141   0.62440   11.0   0.04
C3   2     0.68548   0.36785   0.50743   11.0   0.04
F3   3     0.62802   0.39026   0.55676   11.0   0.04
F4   3     0.61013   0.34480   0.45409   11.0   0.04
C4   2     0.82958   0.29216   0.48791   11.0   0.04
F5   3     0.75112   0.27126   0.43122   11.0   0.04
F6   3     0.90105   0.24547   0.51246   11.0   0.04
C5   2     0.90393   0.34840   0.46155   11.0   0.04
F7   3     0.95256   0.32060   0.41765   11.0   0.04
C6   2     0.81212   0.39106   0.43542   11.0   0.04
F8   3     0.75251   0.38078   0.37787   11.0   0.04
F9   3     0.87711   0.44324   0.41380   11.0   0.04
C7   2     0.76027   0.42380   0.48474   11.0   0.04
F10  3     0.68103   0.46239   0.46162   11.0   0.04
C8   2     0.83467   0.43912   0.54881   11.0   0.04
F11  3     0.78785   0.46776   0.59229   11.0   0.04
F12  3     0.89891   0.48968   0.53089   11.0   0.04
C9   2     0.92371   0.39497   0.57435   11.0   0.04
F13  3     0.98977   0.40767   0.63295   11.0   0.04
C10  2     0.97811   0.36388   0.52714   11.0   0.04
F14  3     1.06082   0.32692   0.54829   11.0   0.04
F15  3     1.04624   0.41295   0.50745   11.0   0.04
</PFADAMO>



<Toluene>
REM Name: Toluene, C7H8
REM Source: CCDC CESLUJ
RESI TOL
SADI C2 C3  C3 C4  C4 C5  C5 C6  C6 C7  C7 C2
SADI 0.04 C2 C6  C2 C4  C7 C5  C3 C7  C4 C6  C3 C5
SADI 0.02 C1 C2
SADI 0.04 C1 C7  C1 C3
FLAT C1 > C7
SIMU C1 > C7
RIGU C1 > C7
FRAG  17  11.246 14.1233 27.1842 90 100.079 90
C1      1  0.348100  0.506190  0.448510  1.000000 0.05000
C2      1  0.371740  0.588160  0.416130  1.000000 0.05000
C3      1  0.277060  0.638780  0.388210  1.000000 0.05000
C4      1  0.297580  0.713550  0.358250  1.000000 0.05000
C5      1  0.415480  0.739510  0.355590  1.000000 0.05000
C6      1  0.510680  0.690330  0.383120  1.000000 0.05000
C7      1  0.489380  0.615360  0.412970  1.000000 0.05000
</TOLUENE>

<Benzene>
REM Name: Benzene, Benzol, C6H6
REM SRC: UGEDEQ
RESI BENZ
SADI 0.02 C1 C2 C2 C3 C3 C4 C4 C5 C5 C6 C6 C1
SADI 0.04 C1 C5 C1 C5 C4 C2 C4 C6 C6 C2 C5 C3
FLAT C1 > C6
SIMU C1 > C6
RIGU C1 > C6
FRAG  17  11.099 9.791 26.324 90 90 90
C1      1  0.880000 -0.330900  0.267190  1.000000 0.05000
C2      1  0.786200 -0.377700  0.238080  1.000000 0.05000
C3      1  0.760600 -0.318400  0.192570  1.000000 0.05000
C4      1  0.829200 -0.212200  0.175520  1.000000 0.05000
C5      1  0.923200 -0.164400  0.204000  1.000000 0.05000
C6      1  0.948800 -0.223200  0.249920  1.000000 0.05000
</Benzene>

<DME-free>
REM Name: 1,2-Dimethoxyethane, not coordinated, C4H10O2, DME
rem Src: Turbomole, B3-LYP/def2-TZVPP
rem This DME is not coordinated
RESI DME
SADI 0.02 O1 C1 O2 C4
SADI 0.02 O1 C2 O2 C3
SADI 0.02 C2 C3
DANG 2.354 C1 C2 C3 C4
DANG 2.390 C2 O2 O1 C3
SIMU O1 > C4
RIGU O1 > C4
FRAG 17 1 1 1 90 90 90
O1  1  -1.3542148   -0.4780990   -0.5279749
O2  1   1.3983981   -0.3777806    0.4922128
C1  1  -2.7100766   -0.6834933   -0.2027211
C2  1  -0.7677388    0.5855895    0.1921388
C3  1   0.7022675    0.6754980   -0.1402004
C4  1   2.7670633   -0.4138645    0.1574639
</DME-free>


<DME>
REM SRC: TURBOMOLE, B3-LYP/def2-TZVP
rem Name: 1,2-Dimethoxyethane, coordinated to Na, C4H10O2, DME
REM This DME was coordinated to Na
RESI DME
SADI 0.02 O1 C1 O2 C4 O1 C2 O2 C3
SADI 0.02 C2 C3
DANG 2.394 C1 C2 C3 C4
DANG 2.412 C2 O2 O1 C3
SIMU C1 > C4
RIGU C1 > C4
FRAG 17  1  1  1  90  90  90
O1    1     -1.154  -0.748   0.526
O2    1      1.089   0.908   0.398
C1    1     -2.458  -1.345   0.452
C2    1     -0.693  -0.252  -0.740
C3    1      0.794   0.006  -0.679
C4    1      2.404   1.477   0.307
</DME>

<Chlorobenz>
REM Src: CCDC ICAHEB
rem Name: Chlorobenzene, C6H5Cl
RESI CBZ
SADI C1 C2 C2 C3 C3 C4 C4 C5 C5 C6 C6 C1
SADI C1 C3 C3 C5 C2 C6 C2 C4 C4 C6 C1 C5
SADI Cl1 C2 Cl1 C6
SADI 0.02 Cl1 C1
FLAT Cl1 > C6
SIMU Cl1 > C6
RIGU Cl1 > C6
FRAG 17 10.8813 27.3449 15.7652 90 93.387 90
Cl1     3  0.321060  0.863490  0.405680  1.000000 0.05000
C1      1  0.272400  0.878700  0.301900  1.000000 0.05000
C2      1  0.250500  0.841400  0.243000  1.000000 0.05000
C3      1  0.212600  0.853700  0.159300  1.000000 0.05000
C4      1  0.197300  0.901400  0.136000  1.000000 0.05000
C5      1  0.219100  0.938600  0.196200  1.000000 0.05000
C6      1  0.258700  0.927800  0.279600  1.000000 0.05000
</Chlorobenz>

<18C6>
rem Src: CCDC GOJHOE
REM Name: 18-Crown-6, C12H24O6, 18C6
RESI CRO
SADI O1 C1 O1 C12 O2 C2 O2 C3 O3 C4 O3 C5 O4 C6 O4 C7 O5 C8 O5 C9 O6 C10 O6 C11
SADI C1 C2 C3 C4 C5 C6 C7 C8 C9 C10 C11 C12
SADI 0.04 C2 C3 C4 C5 C6 C7 C8 C9 C10 C11 C12 C1
SADI 0.04 O1 C2 O2 C4 O3 C6 O4 C8 O5 C10 O6 C12 O2 C1 O3 C3 O4 C5 O5 C7 O6 C9 O1 C11
SIMU O1 > C12
RIGU O1 > C12
FRAG 17  14.1654 16.2527 18.5337 90 90 90
O1  1 -0.01662  0.07694   0.67990
O2  1  0.14175 -0.02600   0.67449
O3  1  0.32113  0.05133   0.66739
O4  1  0.33531  0.19339   0.57813
O5  1  0.17375  0.29194   0.56659
O6  1 -0.00617  0.22166   0.59682
C1  1 -0.02434 -0.01024   0.67262
C2  1  0.05704 -0.04940   0.71057
C3  1  0.22362 -0.05769   0.70987
C4  1  0.30817 -0.03582   0.66628
C5  1  0.40544  0.07583   0.63173
C6  1  0.40792  0.16734   0.62631
C7  1  0.33988  0.27967   0.56358
C8  1  0.25439  0.30410   0.52171
C9  1  0.08864  0.31593   0.53139
C10 1  0.00863  0.30676   0.58306
C11 1 -0.07793  0.20842   0.64982
C12 1 -0.09838  0.11846   0.65305
</18C6>

<mesityl>
rem Name: Mesitylene, 1,3,5-Trimethylbenzene, C9H12
REM Src: CCDC MOLGAX
RESI MESI
SADI C1 C2 C2 C3 C3 C4 C4 C5 C5 C6 C6 C1
SADI 0.04 C1 C3 C3 C5 C5 C1 C2 C6 C2 C4 C4 C6
SADI C1 C7 C3 C8 C5 C9
SADI 0.04 C2 C7 C6 C7 C6 C9 C4 C9 C4 C8 C2 C8
FLAT C1 > C9
SIMU C1 > C9
RIGU C1 > C9
FRAG 17 7.0546 9.8563 16.396 73.042 88.21 71.792
C1      1  0.284300  0.487260  0.157550
C2      1  0.268900  0.545230  0.069230
C3      1  0.214400  0.699000  0.028380
C4      1  0.176700  0.794510  0.079330
C5      1  0.190400  0.740000  0.168120
C6      1  0.244800  0.586600  0.206550
C7      1  0.339000  0.321100  0.200360
C8      1  0.191500  0.759000 -0.067800
C9      1  0.141600  0.845800  0.221820
</mesityl>

<PPh3>
REM Src: CCDC SARYIV
REM Name: Triphenylphosphane, Triphenylphosphine, Ph3P, C18H15P
SADI C1 C2 C2 C3 C3 C4 C4 C5 C5 C6 C6 C1  C7 C8 C8 C9 C9 C10 C10 C11 =
     C11 C12 C12 C7  C13 C14 C14 C15 C15 C16 C16 C17 C17 C18 C18 C13
SADI P1 C1 P1 C7 P1 C13
SADI 0.04 C1 C3 C1 C5 C5 C3 C4 C2 C4 C6 C2 C6  C7 C9 C7 C11 C9 C11 =
     C10 C8 C10 C12 C8 C12  C13 C15 C13 C17 C15 C17 C16 C14 C16 C18 C14 C18
SADI 0.04 P1 C14 P1 C18 P1 C12 P1 C8 P1 C2 P1 C6
FLAT C1 > C6 P1
FLAT C7 > C12 P1
FLAT C13 > C18 P1
SIMU P1 > C18
RIGU P1 > C18
RESI PPh3
FRAG 17 12.1586 12.6802 19.525 90 103.689 90
P1      4  0.327250  0.460100  0.117750
C1      1  0.289340  0.444870  0.202520
C2      1  0.210780  0.365990  0.207490
C3      1  0.178260  0.349620  0.270790
C4      1  0.224160  0.412060  0.328940
C5      1  0.302600  0.490380  0.324790
C6      1  0.334960  0.507130  0.261630
C7      1  0.371650  0.599020  0.118210
C8      1  0.287470  0.676840  0.101570
C9      1  0.316760  0.782910  0.099800
C10     1  0.430480  0.812870  0.114240
C11     1  0.514290  0.736090  0.131470
C12     1  0.485190  0.630110  0.133560
C13     1  0.460960  0.388280  0.127870
C14     1  0.493840  0.359180  0.066390
C15     1  0.594870  0.304990  0.070110
C16     1  0.663740  0.278650  0.135730
C17     1  0.631220  0.305780  0.197140
C18     1  0.530730  0.361180  0.193460
</PPh3>

<Quinaldine>
REM Src: CCDC REHFIU
REM Name: Quinaldine, C10H9N
RESI quin
SADI C2 C3 C3 C4 C4 C5 C5 C10 C5 C6 C6 C7 C7 C8 C8 C9 C9 C10
SADI N1 C2 N1 C10
SADI C2 C4 C4 C10 C3 C5
SADI C3 N1 N1 C5
SADI C6 C8 C6 C10 C9 C5 C9 C7 C8 C6 C8 C10 C5 C7
SADI 0.02 C1 C2
FLAT N1 > C10
RIGU N1 > C10
SIMU N1 > C10
FRAG 17 7.3823 7.8262 13.9272 79.062 76.801 78.81
N1      3  0.660950  0.951270  0.122160  1.000000 0.05000
C1      1  0.646700  1.142100  0.242730  1.000000 0.05000
C2      1  0.696340  1.101930  0.138630  1.000000 0.05000
C3      1  0.780000  1.218380  0.057740  1.000000 0.05000
C4      1  0.819810  1.177260 -0.036750  1.000000 0.05000
C5      1  0.782870  1.015880 -0.053830  1.000000 0.05000
C6      1  0.820580  0.963530 -0.149180  1.000000 0.05000
C7      1  0.785000  0.803600 -0.159460  1.000000 0.05000
C8      1  0.708400  0.688400 -0.075160  1.000000 0.05000
C9      1  0.666660  0.735710  0.018400  1.000000 0.05000
C10     1  0.703750  0.899840  0.029400  1.000000 0.05000
</Quinaldine>


<acetate>
rem Src: CCDC LIBXUR
rem Name: Acetate anion, C2H3O2-
RESI OAC
SADI 0.02 C1 C2
SADI 0.02 C1 O1 C1 O2
SADI 0.04 O1 O2
SADI 0.04 O1 C2 C2 O2
FLAT O1 > C2
SIMU O1 > C2
RIGU O1 > C2
FRAG 17 7.0795 17.7124 15.9227 90 94.618 90
O1     3  0.230980  0.431130  0.855950  1.000000 0.05000
O2     3  0.404410  0.525370  0.816610  1.000000 0.05000
C1     1  0.254300  0.486810  0.808840  1.000000 0.05000
C2     1  0.099200  0.507650  0.743010  1.000000 0.05000
</acetate>


<dmpz>
REM Name: Dimethylpyrazolato anion, [C5H6N]-, pz*
REM Src: CCDC MADVAQ
RESI CBZ
SADI 0.02 C1 C4 C3 C5
SADI 0.02 C1 C2 C2 C3
SADI 0.02 C1 N1 N2 C3
SADi 0.02 N1 N2
SADI 0.04 N1 C4 N2 C5
SADI 0.04 C2 C4 C2 C5
SADI 0.04 N2 C1 N1 C3
SADI 0.04 N1 C2 N2 C2
RIGU N1 > C5
SIMU N1 > C5
FLAT N1 > C5
FRAG 17 10.0429 11.5505 11.6084 62.668 80.643 66.913
N1      4  0.861240  0.226040  0.196410  1.000000 0.05000
N2      4  0.773940  0.317430  0.245840  1.000000 0.05000
C1      1  0.973060  0.267490  0.142760  1.000000 0.05000
C2      1  0.960310  0.382480  0.162250  1.000000 0.05000
C3      1  0.832920  0.411810  0.227210  1.000000 0.05000
C4      1  1.085740  0.201910  0.068700  1.000000 0.05000
C5      1  0.763400  0.525190  0.270460  1.000000 0.05000
</dmpz>


<Bipyridine>
rem Src: CCDC DOCYEB
REM Name: 2,2'-Bipyridine, bipy, C10H8N2
RESI BIP
SADI N1 C1 N1 C5 N2 C6 N2 C10
SADI C2 C3 C3 C4 C4 C5 C6 C7 C7 C8 C8 C9 C9 C10
SADI 0.02 C5 C6
SADI 0.04 N1 C4 N1 C2 N2 C7 N2 C9
SADI 0.04 C1 C5 C1 C3 C2 C4 C3 C5 C6 C10 C6 C8 C7 C9
FLAT N1 > C10
SIMU N1 > C10
RIGU N1 > C10
FRAG 17  7.221 15.822 16.582 90 98.718 90
N1      3  0.963000  0.007020  0.661360  1.000000 0.05000
N2      3  0.771900  0.114320  0.559680  1.000000 0.05000
C1      1  1.057800 -0.045020  0.716750  1.000000 0.05000
C2      1  1.067700 -0.131630  0.705450  1.000000 0.05000
C3      1  0.977400 -0.166380  0.633190  1.000000 0.05000
C4      1  0.882200 -0.113040  0.574510  1.000000 0.05000
C5      1  0.877700 -0.026780  0.590600  1.000000 0.05000
C6      1  0.776200  0.034620  0.532150  1.000000 0.05000
C7      1  0.688100  0.011390  0.454480  1.000000 0.05000
C8      1  0.591100  0.072380  0.404530  1.000000 0.05000
C9      1  0.584000  0.154350  0.433810  1.000000 0.05000
C10     1  0.676400  0.172740  0.511330  1.000000 0.05000
</Bipyridine>


<Pyrazole>
REM Src: CCDC CUJWEK
REM Name: Pyrazole, C3H4N2
RESI pyr
SADI C1 C2 C2 C3
SADI C1 N1 C3 N2
SADI C1 N2 C3 N1
FLAT N1 > C3
RIGU N1 > C3
SIMU N1 > C3
FRAG 17  11.157 14.336 14.188 90 107.794 90
N1      4 -0.087770  0.306980  0.867620  1.000000 0.05000
N2      4  0.019890  0.258430  0.911650  1.000000 0.05000
C1      1 -0.097100  0.379710  0.924960  1.000000 0.05000
C2      1  0.005900  0.379150  1.008430  1.000000 0.05000
C3      1  0.076300  0.302240  0.996690  1.000000 0.05000
</Pyrazole>


<Pyrene>
REM Src: TURBOMOLE BP86/SVP
REM Name: Pyrene, C16H10
RESI pyr
SADI C1 C2 C2 C3 C3 C3A C3A C4 C4 C5 C5 C5A C5A C6 C6 C7 C7 C8 C8 C8A C8A C9 =
  C9 C10 C10 C10A C10A C1 C10A C10B C10B C3A C10B C10C C10C C5A C10C C8A
SADI 0.04 C1 C3 C1 C10B C3A C2 C3A C10A C3 C10B C2 C10A C4 C5A C4 C10B C10C C5 C5 C3A =
  C3A C10C C5A C10B C5A C7 C5A C8A C7 C8A C6 C8 C6 C10C C8 C10C C9 C10A C9 C10C =
  C10A C10C C10 C10B C8A C10B C8A C10
SIMU C1 > C10c
RIGU C1 > C10c
FLAT C1 > C10c
FRAG 17  50.000   50.000   50.000   90.000   90.000   90.000
C1    1     0.024373    -0.057045    -0.000000   11.00   0.04
C2    1    -0.000000    -0.070962     0.000000   11.00   0.04
C3    1    -0.024373    -0.057045     0.000000   11.00   0.04
C3A   1    -0.024903    -0.028751     0.000000   11.00   0.04
C4    1    -0.049528    -0.013755    -0.000000   11.00   0.04
C5    1    -0.049528     0.013755    -0.000000   11.00   0.04
C5A   1    -0.024903     0.028751    -0.000000   11.00   0.04
C6    1    -0.024373     0.057045    -0.000000   11.00   0.04
C7    1    -0.000000     0.070962    -0.000000   11.00   0.04
C8    1     0.024373     0.057045     0.000000   11.00   0.04
C8A   1     0.024903     0.028751     0.000000   11.00   0.04
C9    1     0.049528     0.013755     0.000000   11.00   0.04
C10   1     0.049528    -0.013755    -0.000000   11.00   0.04
C10A  1     0.024903    -0.028751    -0.000000   11.00   0.04
C10B  1     0.000000    -0.014324     0.000000   11.00   0.04
C10C  1     0.000000     0.014324     0.000000   11.00   0.04
</Pyrene>




<Pentafl>
REM Src: CCDC CIMYOO
REM Name: Pentafluorophenyl, -C6F5
RESI pefl
SADI C1 C2 C2 C3 C3 C4 C4 C5 C5 C6 C6 C1
SADI C2 F1 C3 F2 C4 F3 C5 F4 C6 F5
SADI 0.04 C1 C3 C1 C5 C4 C2 C4 C6 C5 C3 C2 C6
SADI 0.04 C1 F1 F1 C3 C2 F2 F2 C4 C3 F3 F3 C5 C4 F4 F4 C6 C5 F5 F5 C1
FLAT F1 > C6
SIMU F1 > C6
RIGU F1 > C6
FRAG 17 12.3591 13.2804 14.0247 92.336 109.02 112.483
F1      4  0.232420  0.519680  0.127970  1.000000 0.05000
F2      4  0.281870  0.635370  0.309140  1.000000 0.05000
F3      4  0.384630  0.861310  0.343710  1.000000 0.05000
F4      4  0.435290  0.969060  0.192870  1.000000 0.05000
F5      4  0.398730  0.855870  0.014490  1.000000 0.05000
C1      1  0.312750  0.682410  0.063350  1.000000 0.05000
C2      1  0.286300  0.631100  0.142270  1.000000 0.05000
C3      1  0.309830  0.689190  0.236140  1.000000 0.05000
C4      1  0.360510  0.803350  0.253230  1.000000 0.05000
C5      1  0.387970  0.857620  0.177000  1.000000 0.05000
C6      1  0.365880  0.798100  0.084840  1.000000 0.05000
</Pentafl>


<PFAnion>
RESI AlPF
REM Name: [Al{OC(CF3)3}4]- PF-Anion
REM Source: P. J. Malinowski, Freiburg
SADI 0.02 Al1 O1 Al1 O2 Al1 O3 Al1 O4
SADI 0.04 O1 O2 O1 O3 O1 O4 O2 O3 O2 O4 O3 O4
SADI 0.05 Al1 C1 Al1 C5 Al1 C9 Al1 C13
SADI 0.03 O1 C1 O2 C5 O3 c9 o4 c13
SADI 0.04 O1 C2 O1 C3 O1 C4  O2 C6 O2 C7 O2 C8  O3 c10 O3 C11 O3 C12  O4 C14 O4 C15 O4 C16
SADI C1 C2 C1 C3 C1 C4  C5 C6 C5 C7 C5 C8  C9 C10 C9 C11 C9 C12  C13 C14 C13 C15 C13 C16
SADI 0.04 C2 C3 C2 C4 C3 C4  C6 C7 C6 C8 C7 C8  C10 C11 C10 C12 C11 C12  C14 C15 C14 C16 C15 C16
SADI C2 F1 C2 F2 C2 F3  C3 F4 C3 F5 C3 F6  C4 F7 C4 F8 C4 F9  C6 F10 C6 F11 C6 F12 =
   C7 F13 C7 F14 C7 F15  C8 F16 C8 F17 C8 F18  C10 F19 C10 F20 C10 F21  C11 F22 C11 F23 C11 F24 =
   C12 F25 C12 F26 C12 F27  C14 F28 C14 F29 C14 F30  C15 F31 C15 F32 C15 F33 =
   C16 F34 C16 F35 C16 F36
SADI 0.04 F1 F2 F2 F3 F3 F2  F4 F5 F4 F6 F6 F5  F7 F8 F7 F9 F9 F8 =
   F10 F11 F10 F12 F12 F11  F13 F14 F14 F15 F15 F14  F16 F17 F17 F18 F18 F17
SIMU Al1 > F36
RIGU Al1 > F36
FRAG 17 9.4620  13.6925  13.6839   89.907   90.021   89.967
Al1   4   1.00003   -0.24999   0.24991
O1    2   0.89982   -0.16394   0.30981
C1    1   0.82344   -0.08068   0.30489
C2    1   0.70803   -0.08678   0.22317
F1    3   0.76039   -0.12578   0.14352
F2    3   0.65458   -0.00077   0.19964
F3    3   0.60136   -0.14420   0.25378
C3    1   0.75104   -0.06441   0.40583
F4    3   0.84220   -0.03373   0.47124
F5    3   0.64763    0.00199   0.40068
F6    3   0.69647   -0.14768   0.43829
C4    1   0.92076    0.00761   0.28224
F7    3   1.03912    0.00061   0.33222
F8    3   0.95606    0.00961   0.18765
F9    3   0.86098    0.09309   0.30265
O2    2   1.10084   -0.19017   0.16392
C5    1   1.17710   -0.19489   0.08059
C6    1   1.24979   -0.09469   0.06457
F10   3   1.35267   -0.09964  -0.00219
F11   3   1.15822   -0.02854   0.03388
F12   3   1.30359   -0.06129   0.14775
C7    1   1.07893   -0.21746  -0.00736
F13   3   1.04406   -0.31273  -0.00996
F14   3   1.13910   -0.19743  -0.09343
F15   3   0.96103   -0.16779  -0.00123
C8    1   1.29159   -0.27688   0.08693
F16   3   1.34556   -0.30038   0.00011
F17   3   1.39870   -0.24629   0.14414
F18   3   1.23917   -0.35636   0.12591
O3    2   0.89912   -0.33599   0.18953
C9    1   0.82350   -0.41942   0.19462
C10   1   0.75035   -0.43562   0.09451
F19   3   0.84106   -0.46611   0.02811
F20   3   0.69563   -0.35186   0.06198
F21   3   0.64682   -0.50132   0.09984
C11   1   0.92081   -0.50768   0.21770
F22   3   1.03851   -0.50096   0.16689
F23   3   0.95612   -0.51042   0.31195
F24   3   0.86030   -0.59299   0.19724
C12   1   0.70780   -0.41321   0.27720
F25   3   0.65440   -0.49974   0.29975
F26   3   0.60165   -0.35545   0.24678
F27   3   0.76048   -0.37476   0.35585
O4    2   1.10011   -0.31016   0.33563
C14   1   1.29276   -0.22284   0.41335
C13   1   1.17691   -0.30561   0.41945
F28   3   1.23934   -0.14395   0.37421
F29   3   1.39836   -0.25309   0.35540
F30   3   1.34619   -0.20046   0.49926
C15   1   1.07947   -0.28250   0.50778
F31   3   0.96136   -0.33238   0.50142
F32   3   1.04419   -0.18827   0.51000
F33   3   1.13950   -0.30272   0.59288
C16   1   1.24936   -0.40511   0.43566
F34   3   1.35264   -0.40040   0.50181
F35   3   1.15795   -0.47180   0.46603
F36   3   1.30411   -0.43804   0.35185
</PFAnion>


<hfipO>
REM Src: Turbomole, B3LYP/def2-TZVPP
rem Name: Hexafluoroisopropanol, hfip, C3H2F6O
RESI HFIP
SADI C2 F1 C2 F2 C2 F3  C3 F4 C3 F5 C3 F6
SADI C1 C2 C1 C3
SADI 0.02 O1 C1
SADI 0.02 C2 C3
SADI O1 C2 O1 C3
SADI 0.04 C1 F1 C1 F2 C1 F3 C1 F4 C1 F5 C1 F6
SIMU O1 > F6
RIGU O1 > F6
FRAG 17 1  1  1  90  90  90
O1    1      1.56146       -0.98947        0.00000
C1    2      0.30418       -0.62025        0.00000
C2    2     -0.07823        0.19052        1.26375
C3    3     -0.07823        0.19052       -1.26375
F1    3      0.15328       -0.54900        2.36570
F2    3     -1.39094        0.54896        1.34009
F3    3      0.62402        1.32758        1.41073
F4    3      0.15328       -0.54900       -2.36570
F5    3      0.62402        1.32758       -1.41073
F6    3     -1.39094        0.54896       -1.34009
</hfipO>

<OCH2CF3>
rem Src: TURBOMOLE V6.0  B-P86/def-SV(P)
rem Name: Trifluoroethanol, OCH2CF3-
RESI OCCF
SADI 0.02 O1 C1
SADI 0.02 C1 C2
DANG 2.415 O1 C2
SADI F1 C2 F2 C2 F3 C2
SADI 0.04 F1 F2 F2 F3 F3 F1
SADI 0.04 F1 C1 F2 C1 F3 C1
SIMU O1 > F3
RIGU O1 > F3
FRAG 17  1  1  1  90  90  90
O1   2      -0.75623        1.65208       -0.33478
C1   1      -2.10507        1.91209       -0.42225
C2   1      -2.58835        1.99186       -1.87166
F1   3      -1.95714        2.96525       -2.57811
F2   3      -3.92641        2.28171       -1.91217
F3   3      -2.41301        0.83156       -2.54596
</OCH2CF3>


<Ethanol>
REM Src: Turbomole, B3LYP/def2-TZVPP
rem Name: Ethanol, C2H6O
RESI ETH
SADI 0.02 C1 C2
SADI 0.02 C1 O1
SADI 0.04 C2 O1
SIMU O1 > C2
RIGU O1 > C2
FRAG 17  1  1  1  90  90  90
O1   2   -0.97071       -1.14465        0.00000
C1   1   -0.50625        0.20248        0.00000
C2   1    1.00302        0.15990        0.00000
</Ethanol>

<pyridine>
rem Name: Pyridine, C5H5N
rem Src: CCDC EPEXED
RESI PYRI
SADI N1 C1 N1 C5
SADI C1 C2 C2 C3 C3 C4 C4 C5
SADI 0.04 N1 C4 N1 C2
SADI 0.04 C3 C5 C3 C1 C4 C2 C5 C1
FLAT N1 > C5
SIMU N1 > C5
RIGU N1 > C5
FRAG 17 15.039 12.809 14.218 90 90 90
N1      3  0.125940  0.725600  0.985470  1.000000 0.05000
C1      1  0.110960  0.633200  0.946190  1.000000 0.05000
C2      1  0.105800  0.616000  0.850650  1.000000 0.05000
C3      1  0.117900  0.698900  0.791270  1.000000 0.05000
C4      1  0.132850  0.795200  0.829330  1.000000 0.05000
C5      1  0.136070  0.805400  0.926080  1.000000 0.05000
</pyridine>


<propane>
rem Name: Propane, C3H8
REM Src: CCDC 103186
RESI PROP
SADI C1 C2 C2 C3
DANG 2.540 C1 C3
SIMU C1 > C3
RIGU C1 > C3
FRAG 17 4.148 12.612 6.977 90 91.28 90
C1      1  0.217300  0.948250  0.219960  1.000000 0.05000
C2      1  0.308500  0.875410  0.388090  1.000000 0.05000
C3      1  0.230600  0.759140  0.344940  1.000000 0.05000
</propane>


<pentane>
REM Src: CCDC 102188
REM Name: n-Pentane, C5H10
RESI PEN
SADI C1 C2 C2 C3 C3 C4 C4 C5
SADI 0.04 C1 C3 C3 C5 C2 C4
SIMU C1 > C5
RIGU C1 > C5
FRAG 17  4.1357 9.025 14.816 90 90 90
C1    1   0.196000   0.368860   0.087800   1.00000   0.05000
C2    1   0.094100   0.461660   0.168320   1.00000   0.05000
C3    1   0.000000   0.369650   0.250000   0.50000   0.05000
C4    1  -0.094100   0.461660   0.331680   1.00000   0.05000
C5    1  -0.196000   0.368860   0.412200   1.00000   0.05000
</pentane>



<Hexane>
REM Src: CCDC 103189
REM Name: n-Hexane, C6H14
RESI HEX
SADI C1 C2 C2 C3 C3 C4 C4 C5 C5 C6
SADI 0.04 C1 C3 C3 C5 C2 C4 C4 C6
SIMU C1 > C6
RIGU C1 > C6
FRAG 17 4.1309 4.6963 8.539 83.4 87.265 75.172
C1    1   0.223300   0.731400   0.152630   1.00000   0.05000
C2    1   0.371900   0.492880   0.283660   1.00000   0.05000
C3    1   0.427500   0.618430   0.433610   1.00000   0.05000
C4    1   0.572500   0.381570   0.566390   1.00000   0.05000
C5    1   0.628100   0.507120   0.716340   1.00000   0.05000
C6    1   0.776700   0.268600   0.847370   1.00000   0.05000
</Hexane>


<Heptane>
REM Src: CCDC 103190
REM Name: n-Heptane, C7H16
RESI HEPT
SADI C1 C2 C2 C3 C3 C4 C4 C5 C5 C6 C6 C7
SADI C1 C3 C3 C5 C2 C4 C4 C6 C5 C7
SIMU C1 > C7
RIGU C1 > C7
FRAG 17 4.116 4.686 20.348 78.11 81.79 74.25
C1      1  1.160300  0.293000  0.427980  1.000000 0.05000
C2      1  1.128400  0.175600  0.365640  1.000000 0.05000
C3      1  1.010900  0.427100  0.306980  1.000000 0.05000
C4      1  0.977700  0.314500  0.243990  1.000000 0.05000
C5      1  0.857800  0.566400  0.185820  1.000000 0.05000
C6      1  0.826000  0.455900  0.122430  1.000000 0.05000
C7      1  0.700000  0.710200  0.065280  1.000000 0.05000
</Heptane>


<Octane>
REM Name: n-Octane, C8H18
REM Src: CCDC 103191
RESI OCT1
SADI C1 C2  C2 C3  C3 C4  C4 C5  C5 C6  C6 C7  C7 C8
SADI 0.04 C1 C3  C3 C5  C5 C7  C2 C4  C4 C6  C6 C8
SIMU C1 > C8
RIGU C1 > C8
FRAG  17  4.1947 4.7518 10.998 85.11 83.77 74.26
C1    1   0.800900   0.253400   0.879350   1.00000   0.05000
C2    1   0.673400   0.479200   0.777760   1.00000   0.05000
C3    1   0.640600   0.343900   0.661230   1.00000   0.05000
C4    1   0.516400   0.567900   0.558310   1.00000   0.05000
C5    1   0.483600   0.432100   0.441690   1.00000   0.05000
C6    1   0.359400   0.656100   0.338770   1.00000   0.05000
C7    1   0.326600   0.520800   0.222240   1.00000   0.05000
C8    1   0.199100   0.746600   0.120650   1.00000   0.05000
</Octane>


<Nonane>
REM Name: n-Nonane, C9H20
rem Src: CCDC 103192
RESI OCT1
SADI C1 C2  C2 C3  C3 C4  C4 C5  C5 C6  C6 C7  C7 C8  C8 C9
SADI 0.04 C1 C3  C3 C5  C5 C7 C7 C9  C2 C4  C4 C6  C6 C8
SIMU C1 > C9
RIGU C1 > C9
FRAG  17  4.118 4.674 24.693 86.27 87.8 74.52
C1      1  0.621800  0.718400  0.057990  1.000000 0.05000
C2      1  0.552600  0.536300  0.108040  1.000000 0.05000
C3      1  0.405900  0.726000  0.155410  1.000000 0.05000
C4      1  0.332500  0.548500  0.205990  1.000000 0.05000
C5      1  0.186600  0.740500  0.253100  1.000000 0.05000
C6      1  0.113700  0.564100  0.303890  1.000000 0.05000
C7      1 -0.035300  0.757000  0.350670  1.000000 0.05000
C8      1 -0.106700  0.581700  0.401510  1.000000 0.05000
C9      1 -0.262100  0.777900  0.447520  1.000000 0.05000
</Nonane>

<Eicosan>
REM Name: n-Eicosan, C20H42 
REM Src: Nils Trapp, ETH Zurich
RESI EICO
SADI C1 C2 C2 C3 C3 C4 C4 C5 C5 C6 C6 C7 C7 C8 C8 C9 C9 C10 C10 C11 C11 C12 =
     C12 C13 C13 C14 C14 C15 C15 C16 C16 C17 C17 C18 C18 C19 C19 C20
SADI 0.04 C1 C3 C3 C5 C5 C7 C7 C9 C9 C11 C11 C13 C13 C15 C15 C17 C17 C19 = 
     C2 C4 C4 C6 C6 C8 C8 C10 C10 C12 C12 C14 C14 C16 C16 C18 C18 C20 
FRAG 17 4.1322 4.6758 25.5064 90.389 94.221 104.848
C1    1   0.793376   0.770452   0.050860  11.00000   0.02592 
C2    1   0.667420   0.563458   0.095492  11.00000   0.02178 
C3    1   0.624318   0.729687   0.145104  11.00000   0.01890 
C4    1   0.506644   0.525671   0.190378  11.00000   0.01828 
C5    1   0.459880   0.692521   0.239832  11.00000   0.01752 
C6    1   0.345768   0.489312   0.285426  11.00000   0.01846 
C7    1   0.298215   0.656001   0.334775  11.00000   0.01775 
C8    1   0.185683   0.453073   0.380380  11.00000   0.01721 
C9    1   0.136547   0.619755   0.429680  11.00000   0.01758 
C10   1   0.024541   0.416618   0.475374  11.00000   0.01755 
C11   1  -0.024541   0.583382   0.524626  11.00000   0.01755 
C12   1  -0.136547   0.380245   0.570320  11.00000   0.01758 
C13   1  -0.185683   0.546927   0.619620  11.00000   0.01721 
C14   1  -0.298215   0.343999   0.665225  11.00000   0.01775 
C15   1  -0.345768   0.510688   0.714574  11.00000   0.01846 
C16   1  -0.459880   0.307479   0.760168  11.00000   0.01752 
C17   1  -0.506644   0.474329   0.809622  11.00000   0.01828 
C18   1  -0.624318   0.270313   0.854896  11.00000   0.01890 
C19   1  -0.667420   0.436542   0.904508  11.00000   0.02178 
C20   1  -0.793376   0.229548   0.949140  11.00000   0.02592 
</Eicosan>


<THF>
rem Src: Gaussian 03 B3LYP/6-311++G(d,p) Opt
Rem Name: Tetrahydrofurane, thf, C4H8O
RESI THF
SADI 0.02  C1 C2  C2 C3  C3 C4
SADI 0.02  O1 C1  O1 C4
SADI 0.04  O1 C2  O1 C3
SADI 0.04  C2 C4  C1 C3
SIMU O1 > C4
RIGU O1 > C4
FRAG 17 1  1  1  90  90  90
O1    8      -0.000002   -1.251859   -0.000006
C1    6      -1.169782   -0.428968   -0.130825
C2    6      -0.734164    0.995903    0.225049
C3    6       0.734171    0.995898   -0.225052
C4    6       1.169778   -0.428974    0.130832
</THF>



<12-dichlorobenz>
rem Src: CCDC PUCJIH
REM Name: 1,2-Dichlorobenzene, C6H4Cl2
RESI ClBE
SADI 0.02 C1 Cl1 C2 Cl2
SADI 0.02 C1 C2 C2 C3 C3 C4 C4 C5 C5 C6 C6 C1
SADI 0.04 C1 C3 C1 C5 C4 C2 C4 C6 C2 C6 C3 C5
SADI 0.04  Cl1 C6 Cl1 C2 Cl2 C1 Cl2 C3
FLAT Cl1 > C6
SIMU Cl1 > C6
RIGU Cl1 > C6
FRAG 17 18.3121 11.9556 21.0933 90 110.907 90
Cl1     5  0.821120  0.209100  0.256820  1.000000 0.05000
Cl2     5  0.785490 -0.034180  0.298930  1.000000 0.05000
C1      1  0.774230  0.109800  0.196550  1.000000 0.05000
C2      1  0.758320  0.004500  0.214590  1.000000 0.05000
C3      1  0.720900 -0.073500  0.164770  1.000000 0.05000
C4      1  0.700250 -0.045200  0.097170  1.000000 0.05000
C5      1  0.716920  0.060200  0.079560  1.000000 0.05000
C6      1  0.753340  0.138300  0.129000  1.000000 0.05000
</12-dichlorobenz>


<12-Difluorobenz>
rem Name: 1,2-Difluorobenzene, C6H4F2
rem Src: Gaussian 03 B3LYP/6-31+G(d,p) Opt
RESI FBEN
SADI 0.02  C1 F1  C2 F2
SADI 0.02  C1 C6  C5 C6  C1 C2  C4 C5  C3 C4  C2 C3
SADI 0.04  C1 F2  C3 F2  C2 F1  C6 F1
SADI 0.04  C4 C6  C3 C5  C2 C4  C1 C3  C2 C6  C1 C5
FLAT C1 > F2
SIMU C1 > F2
RIGU C1 > F2
FRAG 17 1 1 1 90 90 90
C1     6     0.533697    0.696785   -0.000001
C2     6     0.533729   -0.696788    0.000000
C3     6    -0.661804   -1.403751    0.000000
C4     6    -1.869488   -0.698847    0.000000
C5     6    -1.869518    0.698801    0.000000
C6     6    -0.661846    1.403734    0.000000
F1     9     1.713672    1.355435    0.000000
F2     9     1.713722   -1.355385    0.000000
</12-Difluorobenz>


<Napht>
rem Src: CCDC NAPHTA26
REM Name: Naphthalene, C10H8
RESI NAPH
SADI 0.02 C1 C2  C2 C3  C3 C4  C4 C4A  C1 C8A  C4A C5  C5 C6  C6 C7  C8 C8A =
     C7 C8 C4A C8A
SADI 0.04 C5 C7  C4A C6  C6 C8  C4 C5  C7 C8A  C3 C4A  C2 C4  C1 C8  C1 C3 =
     C2 C8A
SADI 0.04 C1 C4A  C4 C8A C5 C8A  C4A C8
FLAT C1 > C8a
SIMU C1 > C8a
RIGU C1 > C8a
FRAG 17 8.1125 5.9398 8.649 90 124.472 90
C1    1   0.076670   0.251940  -0.075630   1.00000   0.05000
C2    1   0.013470   0.190770  -0.254470   1.00000   0.05000
C3    1  -0.082520  -0.019250  -0.328940   1.00000   0.05000
C4    1  -0.112930  -0.163550  -0.222850   1.00000   0.05000
C4A   1  -0.048140  -0.105520  -0.037400   1.00000   0.05000
C5    1  -0.076670  -0.251940   0.075630   1.00000   0.05000
C6    1  -0.013470  -0.190770   0.254470   1.00000   0.05000
C7    1   0.082520   0.019250   0.328940   1.00000   0.05000
C8    1   0.112930   0.163550   0.222850   1.00000   0.05000
C8A   1   0.048140   0.105520   0.037400   1.00000   0.05000
</Napht>


<Acetonitrile>
rem Src: CCDC CISDOZ
rem Name: Acetonitrile, NMe, C2H3N
RESI MeCN
DFIX 1.137 0.01 C1 N1
DFIX 1.456 0.01 C1 C2
DFIX 2.593 0.02 C2 N1
SIMU N1 > C2
RIGU N1 > C2
FRAG 17 7.7312 11.868 23.69 90 90 90
N1     3  0.369100  0.221800  0.020510  1.000000 0.05000
C1     1  0.260300  0.183900  0.046650  1.000000 0.05000
C2     1  0.119500  0.135000  0.079280  1.000000 0.05000
</Acetonitrile>


<NSiMe3>
rem Src: Daniel Kratzert, Freiburg
REM Name: Trimethylsilyl-N, C3H10OSi, N-TMS
RESI NSI
SADI Si1 C1 Si1 C2 Si1 C3
SADI 0.03 C1 C2 C2 C3 C3 C1
SADI 0.04 N1 C1 N1 C2 N1 C3
SIMU N1 > C3
RIGU N1 > C3
FRAG 17 21.7069   9.2762  16.9850  90.000 110.554  90.000
N1    3    0.142398    0.343635    0.192072
SI1   4    0.088953    0.293670    0.244601
C1    1    0.092822    0.420803    0.331026
C2    1    0.110847    0.109215    0.288825
C3    1    0.001505    0.299282    0.171842
</NSiMe3>



<Hexa>
rem Src: Daniel Kratzert, Freiburg
REM Name: Hexamethyldisilazane, C6H19NSi2
RESI HEXA
SADI N1 Si1 N1 Si2
SADI Si1 C1 Si1 C2 Si1 C3  Si2 C4 Si2 C5 Si2 C6
SADI 0.04 C1 C2 C2 C3 C3 C1  C4 C5 C5 C6 C6 C4
SADI 0.04 N1 C1 N1 C2 N1 C3  N1 C4 N1 C5 N1 C6
SADI 0.04 Si1 Si2
SIMU N1 > C6
RIGU N1 > C6
FRAG 17 21.7069   9.2762  16.9850  90.000 110.554  90.000
N1    3    0.142398    0.343635    0.192072
SI1   4    0.088953    0.293670    0.244601
C1    1    0.092822    0.420803    0.331026
C2    1    0.110847    0.109215    0.288825
C3    1    0.001505    0.299282    0.171842
SI2   4    0.136576    0.259830    0.096411
C4    1    0.114377    0.397578    0.011501
C5    1    0.071922    0.117330    0.061122
C6    1    0.214656    0.164146    0.107732
</Hexa>

<NMe4+>
REM Src: CCDC FOZROC
REM Name: Tetramethylammonium kation, Me4N+, C4H9N+
RESI META
SADI C1 N1 C1 N1 C3 N1 C4 N1
SADI 0.04 C1 C3  C1 C2  C1 C4  C2 C3  C2 C4  C3 C4
SIMU N1 > C4
RIGU N1 > C4
FRAG 17 12.917 12.917 9.3184 90 90 90
N1    5   0.000000   0.000000   0.000000   0.25000   0.05000
C1    1   0.094050   0.015600   0.092270   1.00000   0.05000
C2    1   0.015600  -0.094050  -0.092270   1.00000   0.05000
C3    1  -0.094050  -0.015600   0.092270   1.00000   0.05000
C4    1  -0.015600   0.094050  -0.092270   1.00000   0.05000
</NMe4+>


<NEt4+>
rem Src: CCDC ABENRE
rem Name: Tetraethylammonium, C8H20N+, NEt4+, et4N+
RESI NET4
SADI N1 C1 N1 C7 N1 C3 N1 C5
SADI C1 C2 C3 C4 C5 C6 C7 C8
SADI 0.04 C1 C3 C3 C5 C5 C7 C7 C1
SADI 0.08 C2 C4 C4 C6 C6 C8
SADI 0.04 N1 C2 N1 C4 N1 C6 N1 C8
SIMU N1 > C8
RIGU N1 > C8
rem Might be activated for more stability:
rem FLAT 0.2 N1 C3 C4 C7 C8
rem FLAT 0.2 N1 C1 C2 C5 C6
FRAG 17 16.41 13.81 16.91 90 90 90
N1    1  0.425700  0.261500  0.002100
C1    2  0.452600  0.154300 -0.002600
C2    2  0.435500  0.094100  0.073900
C3    2  0.333100  0.265000  0.017800
C4    2  0.280700  0.211700 -0.041200
C5    2  0.448800  0.305400 -0.078300
C6    2  0.425700  0.413400 -0.084300
C7    2  0.464300  0.310400  0.072100
C8    2  0.554900  0.316400  0.069100
</NEt4+>

<NBt4+>
REM Name: Tetrabuthylammonium, C16H36N+, Nbt4+, bt4N+
REM Src: John Bacsa, Emory
SADI  0.02 N1 C1 N1 C2 N1 C3 N1 C4
SADI  0.02 C1 C5 C5 C9 C9 C13 C4 C8 C8 C12 C12 C16 C3 C7 C7 C11 C11 C15 C2 C6 =
  C6 C10 C10 C14
SADI  0.04 C1 C9 C5 C13 C4 C12 C8 C16 C3 C11 C7 C15 C2 C10 C6 C14
SADI  0.04 C1 C4 C4 C3 C3 C2
SIMU  N1 > C16
RIGU  N1 > C16
RESI NBT4
FRAG 17 1 1 1 90 90 90
N1    1    3.0343   7.5668  12.3546
C1    1    2.2297   6.6612  11.4381
C2    1    3.9419   8.4833  11.5563
C3    1    3.8391   6.6612  13.2711
C4    1    2.1269   8.4833  13.1528
C5    1    1.2766   7.3780  10.5002
C6    1    5.0591   7.8328  10.7596
C7    1    4.7920   7.3780  14.2090
C8    1    1.0095   7.8328  13.9496
C9    1    0.5204   6.3513   9.6638
C10   1    5.8359   8.9170  10.0174
C11   1    5.5483   6.3513  15.0454
C12   1    0.2328   8.9170  14.6918
C13   1   -0.3417   6.9502   8.6069
C14   1    6.9845   8.3986   9.2173
C15   1    6.4104   6.9502  16.1023
C16   1   -0.9158   8.3986  15.4920
</NBt4+>


<Supersilyle>
rem Name: Tris(trimethylsilyl)silane, [(CH3)3Si]3Si, Supersilyle
rem Src: CCDC CEYMID
RESI SUP
SADI Si1 C1 Si1 C2 Si1 C3 Si2 C4 Si2 C5 Si2 C6 Si3 C7 Si3 C8 Si3 C9
SADI Si1 Si4  Si2 Si4 Si3 Si4
SADI 0.04 Si4 C1 Si4 C2 Si4 C3 Si4 C4 Si4 C5 Si4 C6 Si4 C7 Si4 C8 Si4 C9
SADI Si1 Si2  Si2 Si3 Si3 Si1
SADI 0.04 C1 C2 C2 C3 C3 C1 C4 C5 C5 C6 C6 C4 C7 C8 C8 C9 C9 C7
SIMU Si1 > C9
RIGU Si1 > C9
FRAG 17 10.13 17.035 27.695 90 109.02 90
Si1     4  0.499980  0.937620  0.866250
Si2     4  0.803660  0.958810  0.814020
Si3     4  0.500160  0.817460  0.749120
Si4     4  0.644260  0.868600  0.828450
O1      3  0.733080  0.802570  0.872160
C1      1  0.420800  0.867310  0.901230
C2      1  0.603900  1.012600  0.912580
C3      1  0.353800  0.989600  0.816870
C4      1  0.943500  0.982090  0.875480
C5      1  0.711700  1.052070  0.786890
C6      1  0.891800  0.918930  0.768910
C7      1  0.455000  0.902150  0.703630
C8      1  0.580900  0.741030  0.718230
C9      1  0.337300  0.772640  0.755910
</Supersilyle>


<Cp>
REM Src: Gaussian 03 B3LYP/6-31+G(d,p) Opt
REM Name: Cyclopentadienyl, [C5H5]-, Cp
RESI CP
SADI 0.02  C2 C3  C1 C2  C3 C4  C1 C5  C4 C5
SADI 0.04  C3 C5  C2 C4  C1 C4  C1 C3  C2 C5
FLAT C1 > C5
SIMU C1 > C5
RIGU C1 > C5
FRAG 17  1  1  1  90  90  90
C1   1   -0.680944    0.995938  -0.000002
C2   1    0.736784    0.955370   0.000001
C3   1    1.136318   -0.405495   0.000000
C4   1   -0.034498   -1.205965   0.000000
C5   1   -1.157659   -0.339847   0.000001
</Cp>


<Cpstar>
REM Name: Pentamethylcyclopentadienyl, Cp*, [C5Me5]-
REM Src: Gaussian 03 B3LYP/6-31G(d,p) Opt
RESI CPST
SADI C1 C2 C2 C3 C3 C4 C4 C5 C5 C1
SADI 0.04 C1 C3  C2 C4  C3 C5  C5 C2  C1 C4
SADI C1 C10 C2 C9 C3 C8 C4 C7 C5 C6
SADI 0.04 C10 C2 C10 C5 C9 C1 C9 C3 C8 C2 C8 C4 =
 C7 C3 C7 C5 C6 C4 C6 C1
FLAT C1 > C10
SIMU C1 > C10
RIGU C1 > C10
FRAG 17  1  1  1  90  90  90
C1     6    -1.060600   -0.571473   -0.002912
C2     6     0.215982   -1.186741    0.001368
C3     6     1.197057   -0.162068   -0.000321
C4     6     0.524440    1.088178    0.004475
C5     6    -0.871368    0.833295    0.000684
C6     6    -1.960201    1.871332    0.002844
C7     6     1.180461    2.442921   -0.013978
C8     6     2.688028   -0.370618    0.017599
C9     6     0.475656   -2.669197   -0.016235
C10    6    -2.388757   -1.277095    0.008582
</Cpstar>



<TIP>
REM Name: 2,4,6-Triisopropylphenyl, TIP, C15H25
rem Src: Turbomole, B3LYP/def2-TZVPP
SADI C1 C2 C2 C3 C3 C4 C4 C5 C5 C6 C6 C1
SADI 0.04 C1 C3 C3 C5 C5 C1 C2 C4 C4 C6 C6 C2
SADI C2 C10 C4 C13 C6 C7
SADI C7 C8 C7 C9 C10 C11 C10 C12 C13 C14 C13 C15
SADI 0.04 C8 C9 C11 C12 C14 C15
SADI 0.04 C6 C8 C6 C9 C2 C11 C2 C12 C4 C14 C4 C15
SADI 0.04 C3 C13 C5 C13 C1 C7 C5 C7 C1 C10 C3 C10
FLAT C1 > C6 C7 C10 C13
SIMU C1 > C15
RIGU C1 > C15
RESI TIP2
FRAG  17  1  1  1  90  90  90
C1   1    1.1050  -1.1645   0.0000
C2   1   -0.2120  -1.6193   0.0000
C3   1   -1.2357  -0.6703   0.0000
C4   1   -0.9671   0.6972   0.0000
C5   1    0.3656   1.1132   0.0000
C6   1    1.4154   0.1964   0.0000
C7   1    2.8660   0.6516   0.0000
C8   1    3.2215   1.4460   1.2661
C9   1    3.2215   1.4460  -1.2661
C10  1   -0.5117  -3.1095   0.0000
C11  1   -1.2646  -3.5463   1.2660
C12  1   -1.2646  -3.5463  -1.2660
C13  1   -2.1081   1.7022   0.0000
C14  1   -2.1106   2.5726   1.2661
C15  1   -2.1106   2.5726  -1.2661
</TIP>



<OC(CF3)3>
rem Name: Nonafluoro-tert-butoxy, [(CF3)3CO]-
rem Src: TURBOMOLE V6.0  B-P86/def-SV(P)
RESI CCF3
SADI 0.02 C1 C2 C1 C3 C1 C4
SADI 0.02 F1 C2 F2 C2 F3 C2 F4 C3 F5 C3 F6 C3 F7 C4 F8 C4 F9 C4
SADI 0.04 C2 C3 C3 C4 C2 C4
SADI 0.04 O1 C2 O1 C3 O1 C4
SADI 0.04 F1 F2 F2 F3 F3 F1 F4 F5 F5 F6 F6 F4 F7 F8 F8 F9 F9 F7
SADI 0.02 O1 C1
# The soft SADI restraint allows the CF3 group to tilt a little:
SADI 0.1 F1 C1 F2 C1 F3 C1 F4 C1 F5 C1 F6 C1 F7 C1 F8 C1 F9 C1
SIMU O1 > F9
RIGU O1 > F9
FRAG 17  1  1  1  90  90  90
O1   -8      -0.01453        1.66590        0.10966
C1   -6      -0.00146        0.26814        0.06351
C2   -6      -1.13341       -0.23247       -0.90730
F1   -9      -2.34661       -0.11273       -0.34544
F2   -9      -0.96254       -1.50665       -1.29080
F3   -9      -1.12263        0.55028       -2.01763
C3   -6       1.40566       -0.23179       -0.43131
F4   -9       2.38529        0.42340        0.20561
F5   -9       1.53256        0.03843       -1.75538
F6   -9       1.57833       -1.55153       -0.25035
C4   -6      -0.27813       -0.21605        1.52795
F7   -9       0.80602       -0.03759        2.30431
F8   -9      -0.58910       -1.52859        1.53460
F9   -9      -1.29323        0.46963        2.06735
</OC(CF3)3>


<PF6>
rem Name: Hexafluorophosphate, PF6
rem Src: Gaussian 03 B3LYP/6-311+G(d,p) Opt
RESI PF6
SADI P1 F1 P1 F2 P1 F3 P1 F4 P1 F5 P1 F6
SADI 0.04 F1 F2 F1 F4 F1 F5 F1 F6 F3 F2 F3 F4 F3 F5 F3 F6 F4 F1 F4 F3 F2 F3 F2 F1  
SADI 0.05 F1 F3 F2 F4 F6 F5
SIMU P1 > F6
RIGU P1 > F6
FRAG 17 1  1  1  90  90  90
P1      6    0.000040    0.000000   -0.000058
F1      5   -1.572128    0.474789    0.110335
F2      5   -0.127880   -0.042017   -1.640210
F3      5    1.572201   -0.474868   -0.110339
F4      5    0.127809    0.042044    1.640306
F5      5    0.470393    1.575477   -0.077012
F6      5   -0.470461   -1.575424    0.077017
</PF6>

<BF4>
REM Src: TURBOMOLE V6.0  B-P86/def-SV(P)
REM Name: Tetrafluoroborate, [BF4]-
RESI BF4
SIMU B1 > F4
RIGU B1 > F4
SADI 0.02 B1 F1 B1 F2 B1 F3 B1 F4
SADI 0.04 F1 F2  F2 F3  F3 F4  F4 F1  F2 F4  F1 F3
FRAG 17 1 1 1 90 90 90
B1    5     0.000   0.000   0.000
F1    9     0.819   0.819   0.819
F2    9    -0.819   0.819  -0.819
F3    9     0.819  -0.819  -0.819
F4    9    -0.819  -0.819   0.819
</BF4>

<TFA>
REM Name: Trifluoroacetic acid, C2H1F3O2, TFA
REM Src: CCDC AMTFAC01
RESI TFA
SADI C2 F1 C2 F2 C2 F3
SADI 0.04 C1 F1 C1 F2 C1 F3
SADI 0.04 F1 F2 F2 F3 F3 F1
SADI 0.02 C1 C2
SADI 0.02 C1 O2 C1 O1
SADI 0.04 O2 C2
SADI 0.04 O2 C2
SADI 0.04 O1 O2
FLAT C1 C2 O1 O2
RIGU F1 > C2
SIMU F1 > C2
FRAG 17 4.755 8.0745 12.5668 90 100.885 90
F1      5  0.673490  0.518550  0.156850  1.000000 0.05000
F2      5  0.262950  0.421390  0.079490  1.000000 0.05000
F3      5  0.444620  0.353760  0.244190  1.000000 0.05000
O1      4  0.596440  0.197870  0.009240  1.000000 0.05000
O2      4  0.860010  0.174920  0.176940  1.000000 0.05000
C1      1  0.668670  0.235820  0.106640  1.000000 0.05000
C2      1  0.507410  0.383120  0.146240  1.000000 0.05000
</TFA>


<mquinolinol>
REM Src: CCDC COLWOQ
REM Name: 2-Methyl-8-quinolinol, C10H9NO
RESI MQUI
SADI C1 C2 C2 C3 C3 C4 C4 C5 C5 C6 C5 C7 C7 C8 C8 C9
SADI N1 C6 N1 C9
SADI 0.02 C9 C10
SADI 0.04 C1 O1
SADI 0.04 C1 C3 C1 C5 C2 C6 C3 C5 C2 C4 C4 C6 C6 C7 C7 C9 C5 C8 C6 C9
SADI 0.04 C10 C8
SADI 0.04 C1 O1 C6 O1
SADI 0.04 N1 C5 N1 C8
FLAT O1 > C10
SIMU O1 > C10
RIGU O1 > C10
FRAG 17 9.5851 13.5768 18.7779 90 102.559 90
O1      4  0.265370  0.556370  0.238240  1.000000 0.05000
N1      3  0.193660  0.410350  0.316010  1.000000 0.05000
C1      1  0.161710  0.574820  0.273060  1.000000 0.05000
C2      1  0.093110  0.664730  0.270240  1.000000 0.05000
C3      1 -0.017150  0.679130  0.307890  1.000000 0.05000
C4      1 -0.059840  0.605350  0.347710  1.000000 0.05000
C5      1  0.008470  0.512210  0.352120  1.000000 0.05000
C6      1  0.120040  0.497520  0.314840  1.000000 0.05000
C7      1 -0.028620  0.431060  0.390980  1.000000 0.05000
C8      1  0.041790  0.344210  0.390390  1.000000 0.05000
C9      1  0.154260  0.334900  0.352430  1.000000 0.05000
C10     1  0.229100  0.237830  0.354460  1.000000 0.05000
</mquinolinol>

<quinolinol>
REM Src: CCDC HXQUIN13
REM Name: 8-Hydroxyquinoline, C9H7NO
RESI QUIN
SADI C1 C2 C2 C3 C3 C4 C4 C5 C5 C6 C6 C7 C7 C8 C8 C9 C9 C4
SADI N1 C1 N1 C9
SADI 0.02 C8 O1
SADI 0.04 C1 C3 C1 C9 C2 C4 C3 C5 C3 C9 C4 C8 C9 C7 C6 C8 C4 C6 C5 C7 C5 C9
SADI 0.04 C9 O1 C7 O1
SADI 0.04 N1 C2 N1 C4
FLAT O1 > C9
SIMU O1 > C9
RIGU O1 > C9
FRAG 17 28.5644 24.9336 3.7782 90 90 90
O1      4  0.532600  0.066680  0.528000  1.000000 0.05000
N1      3  0.449700  0.033060  0.220200  1.000000 0.05000
C1      1  0.410410  0.018410  0.063200  1.000000 0.05000
C2      1  0.373800  0.054130 -0.020400  1.000000 0.05000
C3      1  0.378790  0.107350  0.061700  1.000000 0.05000
C4      1  0.420470  0.125270  0.225400  1.000000 0.05000
C5      1  0.428300  0.179510  0.321400  1.000000 0.05000
C6      1  0.469280  0.193660  0.484100  1.000000 0.05000
C7      1  0.504460  0.155390  0.553700  1.000000 0.05000
C8      1  0.498140  0.102470  0.460800  1.000000 0.05000
C9      1  0.455380  0.086120  0.297900  1.000000 0.05000
</quinolinol>


<Cyclohexane>
rem Src: Gaussian 03 B3LYP/6-31+G(d,p) Opt
rem Name: Cyclohexane, C6H12
RESI CYH
SADI C1 C2 C2 C3 C3 C4 C4 C5 C5 C6 C6 C1
SADI 0.04 C1 C5 C3 C5 C2 C6 C2 C4 C4 C6 C1 C3
SIMU C1 > C6
RIGU C1 > C6
FRAG 17 1 1 1 90 90 90
C1   1    1.077432    0.997227    0.229521
C2   1    1.402687   -0.434241   -0.229581
C3   1    0.325134   -1.431258    0.229507
C4   1   -1.077432   -0.997227   -0.229521
C5   1   -1.402687    0.434241    0.229581
C6   1   -0.325134    1.431258   -0.229507
</Cyclohexane>


<ether>
rem Src: CCDC ENEXEB
REM Name: Diethyl ether, C4H10O
REM ETH
RESI DIET
SADI C1 C2 C3 C4
SADI O1 C2 O1 C3
SADI 0.04 C1 O1 O1 C4
SIMU O1 > C4
RIGU O1 > C4
FRAG 17 13.6255 14.9316 21.0256 87.865 85.61 65.513
O1      5  0.911040  0.519650  0.922080  1.000000 0.05000
C1      1  0.996600  0.628800  0.906370  1.000000 0.05000
C2      1  1.011230  0.524800  0.906050  1.000000 0.05000
C3      1  0.917400  0.423120  0.914850  1.000000 0.05000
C4      1  0.816200  0.419000  0.945320  1.000000 0.05000
</ether>


<tBu-C>
rem Src: Gaussian 03 B3LYP/6-311G(d,p) Opt
rem Name: tert-Butyl-C
REM C-tBu without H atoms
RESI CTBU
SADI C2 C3 C2 C4 C2 C5 C2 C1
SADI 0.04 C3 C4 C3 C5 C4 C5
SADI 0.04 C1 C3 C1 C4 C1 C5
SIMU C1 > C5
RIGU C1 > C5
FRAG 17 1 1 1 90 90 90
C1 1    0.078571   0.028684   -0.000002
C2 1   -1.461121   0.005441    0.000000
C3 1   -2.069261   1.420103    0.000003
C4 1   -1.964795  -0.733029    1.261728
C5 1   -1.964800  -0.733025   -1.261729
</tBu-C>


<tBu-O>
rem Src: CCDC DIRWEI
rem Name: Tert-butanol (or tert-butoxy)
RESI TBUO
SADI 0.02 O1 C1
SADI 0.04 O1 C2 O1 C3 O1 C4
SADI C1 C2 C1 C3 C1 C4
SADI 0.04 C2 C3 C3 C4 C4 C2
SIMU O1 > C4
RIGU O1 > C4
FRAG 17 9.4917 26.477 16.661 90 91.346 90
O1      4  0.041100  0.624300  0.275050  1.000000 0.05000
C1      1  0.108100  0.654940  0.211600  1.000000 0.05000
C2      1  0.121800  0.616810  0.143700  1.000000 0.05000
C3      1  0.251300  0.674840  0.238400  1.000000 0.05000
C4      1  0.006700  0.697110  0.187500  1.000000 0.05000
</tBu-O>


<tBu-N>
rem Src: Gaussian 03 B3LYP/6-31G(d,p) Opt
Rem Name: tert-butyl-N
RESI NTBU
SADI 0.02 N1 C1
SADI 0.04 N1 C2 N1 C3 N1 C4
SADI C1 C2 C1 C3 C1 C4
SADI 0.04 C2 C3 C3 C4 C4 C2
SIMU C1 > N1
RIGU C1 > N1
FRAG 17 1 1 1 90 90 90
C1     6      0.609978   -0.000038   -0.000063
C2     6      1.299796    1.243270   -0.598249
C3     6      1.300521   -1.241790   -0.600651
C4     6      0.803915   -0.001421    1.534683
N1     7     -0.823996   -0.000019   -0.415658
</tBu-N>


<DABCO>
rem Src: CCDC ISIHUN
REM Name: 1,4-Diazabicyclo[2.2.2]octane, DABCO
RESI DBCO
SADI N1 C1 N1 C3 N1 C5 N2 C2 N2 C4 N2 C6
SADI C1 C2 C3 C4 C5 C6
SADI 0.04 C1 C3 C3 C5 C1 C5 C2 C4 C2 C6 C4 C6
SADI 0.05 C1 C4 C2 C3 C4 C5 C3 C6 C1 C6 C2 C5
SADI 0.04 N1 N2
SIMU N1 > C6
RIGU N1 > C6
FRAG 17 6.8009 10.8442 11.3699 107.267 92.989 104.811
N1      3  0.403400  0.360300  0.267400  1.000000 0.05000
C1      1  0.380900  0.256400  0.144900  1.000000 0.05000
N2      3  0.078300  0.164500  0.238900  1.000000 0.05000
C2      1  0.182200  0.140500  0.127300  1.000000 0.05000
C3      1  0.416300  0.300000  0.366200  1.000000 0.05000
C4      1  0.222900  0.178800  0.347600  1.000000 0.05000
C5      1  0.219400  0.410400  0.273700  1.000000 0.05000
C6      1  0.022900  0.292500  0.259900  1.000000 0.05000
</DABCO>

<Water>
rem Src: CCDC GOGREB
REM: Name: Water, H2O
RESI H2O
DFIX 0.84 0.01 O1 H1 O1 H2
DANG 1.33 0.02 H1 H2
FRAG 17 14.0382 21.6713 25.5217 90 90 90
O1   4  0.894290  0.382300  0.416410  1.000000 0.05000
H1   2  0.951600  0.393900  0.420000  1.000000 0.06000
H2   2  0.858300  0.410300  0.429200  1.000000 0.06000
</Water>


<CHCl3>
rem Src: Turbomole, B3-LYP/def2-TZVPP
rem Name: Trichloromethane, Chloroform, CHCl3
RESI CCL3
SADI 0.02 C1 Cl1 C1 Cl2 C1 Cl3
SADI 0.04 Cl1 Cl2 Cl2 Cl3 Cl3 Cl1
RIGU C1 > Cl3
SIMU C1 > Cl3
FRAG  17  1  1  1  90  90  90
C1   1    0.0000000    0.0000000   -0.1028729
CL1  2   -0.8504219    1.4729739    0.4333292
CL2  2   -0.8504219   -1.4729739    0.4333292
CL3  2    1.7008437    0.0000000    0.4333292
</CHCl3>


<DMF>
rem Src: Gaussian 03 B3LYP/6-31+G(d,p) Opt
REM Name: N,N-dimethylformamide, C3H7NO, DMF
RESI DMF
SADI 0.02 N1 C2 N1 C3
SADI 0.02 N1 C1
SADI 0.02 C1 O1
SADI 0.04 C2 C3
SADI 0.04 C1 C3
SADI 0.04 C1 C2
FLAT C1 > C3
SIMU C1 > C3
RIGU C1 > C3
FRAG 17 1 1 1  90  90  90
C1    3  -0.863532   -0.649442   -0.000019
O1    1  -1.956254   -0.096874    0.000055
N1    2   0.345872   -0.019536   -0.000195
C2    3   1.593728   -0.761897    0.000057
C3    3   0.421705    1.433650    0.000019
</DMF>


<Acetone>
rem Src: CCDC HIXHIF05
REM Name: Acetone, C3H6O
RESI ACE
SADI C1 C2 C2 C3
FLAT O1 > C3
SADI 0.04 C1 O1 C3 O1
SADI 0.02 C1 C3
SIMU O1 > C3
RIGU O1 > C3
FRAG 17 6.3925 5.3424 10.733 90 90 90
O1    3   0.296100   0.183000   0.250000   0.50000   0.05000
C1    1   0.259300   0.404400   0.250000   0.50000   0.05000
C2    1   0.232000   0.550600   0.131290   1.00000   0.05000
C3    1   0.232000   0.550600   0.368710   1.00000   0.05000
</Acetone>


<Ethylac>
rem Src: Daniel Kratzert, Freiburg
rem Name: Ethyl acetate, C4H8O2
RESI ETAC
SIMU O1 > C4
RIGU O1 > C4
FLAT O1 > C4
SADI C1 C2 C3 C4
SADI 0.02 O1 C2
SADI 0.02 O2 C2
SADI 0.02 O1 C3
SADI 0.02 C3 C4
SADI 0.02 C1 C2
SADI 0.04 O1 C1
SADI 0.04 C2 C3
SADI 0.04 O2 C1
SADI 0.04 O1 C4
FRAG 17  5.8537   7.9695  12.0007   79.267   75.914   71.054
O1    3    0.58485   0.99408   0.79649
O2    3    0.57498   1.01516   0.60906
C1    1    0.83056   1.15362   0.66512
C2    1    0.65200   1.04813   0.68557
C3    1    0.40932   0.89077   0.82575
C4    1    0.34314   0.86040   0.95545
</Ethylac>


<Triflate>
rem Src: Daniel Kratzert, Freiburg
rem Name: Trifluoromethanesulfonate, CF3SO3-, Triflate
RESI TRIF
SIMU C1 > O3
RIGU C1 > O3
SADI C1 F1 C1 F2 C1 F3
SADI 0.04 F1 F2 F2 F3 F3 F1
SADI 0.04 S1 F1 S1 F2 S1 F3
SADI S1 O1 S1 O2 S1 O3
SADI 0.04 O1 O2 O2 O3 O1 O3
SADI 0.04 C1 O1 C1 O2 C1 O3
SADI 0.02 C1 S1
FRAG 17  5.8537  7.9695  12.0007  79.267  75.914  71.054
C1    1    0.88571   0.50637   0.18685
F1    4    0.94881   0.65627   0.15170
F2    4    0.66156   0.53715   0.16645
F3    4    1.03940   0.38175   0.12271
S1    6    0.88987   0.43674   0.34015
O1    3    1.14297   0.40359   0.34715
O2    3    0.71954   0.58850   0.39393
O3    3    0.80703   0.27957   0.36326
</Triflate>


<N-Adamantane>
rem Name: Adamantane-N, C10H15N
rem Src: Daniel Kratzert, Freiburg
RESI NADA
SADI N1 C2 N1 C3 N1 C4
SADI C1 C2 C1 C3 C1 C4  C5 C6 C6 C7 C7 C8 C8 C9 C9 C10 C10 C5
SADI C2 C9 C3 C7 C4 C5
SADI 0.04 C2 C3 C3 C4 C4 C2 C5 C9 C9 C7 C7 C5 C6 C10 C6 C8 C8 C10
SADI 0.05 C5 C8 C7 C10 C9 C6
SADI 0.02 N1 C1
SIMU N1 > C10
RIGU N1 > C10
FRAG 17  12.3433  16.8493  12.7271  90.000 105.861  90.000
N1   1    0.147412  0.183773  0.548368
C1   2    0.059113  0.244364  0.510517
C2   2    0.108962  0.327902  0.514528
C3   2   -0.016787  0.227100  0.395542
C4   2   -0.015659  0.241546  0.589857
C5   2   -0.110518  0.303143  0.558532
C6   2   -0.184176  0.285776  0.442985
C7   2   -0.111101  0.289611  0.363042
C8   2   -0.059481  0.372009  0.366091
C9   2    0.013949  0.389699  0.481391
C10  2   -0.058852  0.386127  0.561687
</N-Adamantane>


<Adamantane>
rem Src: Daniel Kratzert, Freiburg
REM Name: Adamantane, C10H16
RESI CADA
SADI C1 C2 C1 C3 C1 C4 C5 C6 C6 C7 C7 C8 C8 C9 C9 C10 C10 C5 =
  C2 C9 C3 C7 C4 C5
SADI 0.04 C2 C3 C3 C4 C4 C2 C5 C9 C9 C7 C7 C5 C6 C10 C6 C8 C8 C10
SADI 0.05 C5 C8 C7 C10 C9 C6
SIMU C1 > C10
RIGU C1 > C10
FRAG 17  12.3433  16.8493  12.7271  90.000 105.861  90.000
C1   6    0.059113  0.244364  0.510517
C2   6    0.108962  0.327902  0.514528
C3   6   -0.016787  0.227100  0.395542
C4   6   -0.015659  0.241546  0.589857
C5   6   -0.110518  0.303143  0.558532
C6   6   -0.184176  0.285776  0.442985
C7   6   -0.111101  0.289611  0.363042
C8   6   -0.059481  0.372009  0.366091
C9   6    0.013949  0.389699  0.481391
C10  6   -0.058852  0.386127  0.561687
</Adamantane>


<Nitrate>
rem Src: CCDC GODJEQ
REM Name: Nitrate anion, [NO3]-
RESI NITR
SADI N1 O1 N1 O2 N1 O3
SADI 0.04 O1 O2 O2 O3 O3 O1
FLAT N1 > O3
SIMU N1 > O3
RIGU N1 > O3
FRAG  17  6.5438 9.8983 11.922 99.075 95.975 100.199
N1      3  0.266300  0.299160  0.125470  1.000000 0.05000
O1      4  0.267910  0.171910  0.119840  1.000000 0.05000
O2      4  0.274000  0.351760  0.037810  1.000000 0.05000
O3      4  0.256100  0.373080  0.219260  1.000000 0.05000
</Nitrate>



<Tosylate>
rem Name: Tosylate anion,  CH3C6H4SO3-
rem Src: Gaussian 03 B3LYP/6-31+G(d,p) Opt
RESI TOS
SADI 0.02  C2 C3  C1 C2  C3 C4  C4 C5  C5 C6  C1 C6
SADI 0.02  S1 O2  S1 O3  S1 O1
SADI 0.02  C4 C7  C4 S1
SADI 0.04  C4 C6  C2 C4  C1 C5  C3 C5  C2 C6  C1 C3
SADI 0.04  C3 C7  C5 S1  C3 S1  C5 C7
SADI 0.04  C4 O2  C3 C4  C4 O1
SADI 0.04  O2 O3  O1 O3  O1 O2
FLAT C1 > C7 S1
SADI 0.02 S1 C4
SIMU C1 > O3
RIGU C1 > O3
FRAG  17  1  1  1  90  90  90
C1    6      2.661945   -0.002888    0.000126
C2    6      1.933546   -1.202062   -0.000320
C3    6      0.536864   -1.199929   -0.000988
C4    6     -0.164133    0.008718   -0.001266
C5    6      0.546488    1.211154   -0.000975
C6    6      1.944247    1.201926   -0.000341
S1    16    -1.992900    0.001469    0.000217
C7    6      4.175669   -0.005032    0.000795
O1    8     -2.365321    1.446225   -0.013698
O2    8     -2.352216   -0.715937    1.258673
O3    8     -2.354340   -0.740897   -1.243045
</Tosylate>


<CCl4>
rem Src: Gaussian 03 B3LYP/6-311++G(d,p)
rem Name: Tetrachloromethane, CCl4
RESI CCL4
SADI C1 Cl1 C1 Cl2 C1 Cl3 C1 Cl4
SADI 0.04 Cl1 Cl3 Cl2 Cl4 Cl1 Cl4 Cl2 Cl3 Cl1 Cl2 Cl3 Cl4
SIMU C1 > Cl4
RIGU C1 > Cl4
FRAG  17  1  1  1  90  90  90
C1     1    0.000054    0.000014   -0.000056
Cl1    2   -1.431320   -0.653566   -0.856399
Cl2    2    1.462303   -0.903170   -0.505198
Cl3    2   -0.229843   -0.176599    1.767670
Cl4    2    0.198841    1.733330   -0.406054
</CCl4>


<CH2Cl2>
rem Src: CCDC ASOMAX
REM Name: Dichloromethane, CH2Cl2, DCM
RESI CCL2
DFIX 1.771 0.01 Cl1 C1 Cl2 C1
DFIX 2.916 0.03 Cl1 Cl2
SIMU Cl1 > C1
RIGU Cl1 > C1
FRAG  17  12.0134 7.5999 23.8758 90 103.185 90
Cl1     5  0.819550  0.924680  0.195900  1.000000 0.05000
Cl2     5  0.587790  0.806550  0.193980  1.000000 0.05000
C1      1  0.680900  0.885600  0.152200  1.000000 0.05000
</CH2Cl2>


<diox>
rem Src: CCDC OFIZAG
REM Name: Dioxane, C4H8O2
RESI DIOX
SADI C1 C2 C3 C4
SADI O1 C1 O1 C4 O2 C2 O2 C3
SADI 0.04 C1 C3 C2 C4
SADI 0.04 O1 C2 O1 C3 O2 C1 O2 C4
SIMU O1 > C4
RIGU O1 > C4
FRAG 17 6.847 7.0982 8.6412 106.676 105.448 90.679
O1    4   0.190880   0.039150   0.622930   1.00000   0.05000
O2    4  -0.190880  -0.039150   0.377070   1.00000   0.05000
C1    1   0.009080  -0.004220   0.662560   1.00000   0.05000
C2    1  -0.172280   0.057560   0.551210   1.00000   0.05000
C3    1  -0.009080   0.004220   0.337440   1.00000   0.05000
C4    1   0.172280  -0.057560   0.448790   1.00000   0.05000
</diox>

<imidazole>
rem Name: Imidazole-1-ylidene, NHC, C3H2N2
rem Src: CCDC NITFUT
RESI NHC1
SADI C1 N1 C1 N2
SADI N1 C2 N2 C3
SADI 0.02 C2 C3
SADI 0.04 N1 C3 C2 N2
SADI 0.04 C1 C2 C1 C3
FLAT N1 > C3
SIMU N1 > C3
RIGU N1 > C3
FRAG 17 10.2109 18.4364 14.6671 90 104.16 90
N1      3  0.098370  0.291970  0.565760  1.000000 0.05000
N2      3  0.139930  0.177800  0.573840  1.000000 0.05000
C1      1  0.157400  0.239090  0.625130  1.000000 0.05000
C2      1  0.043610  0.264020  0.477420  1.000000 0.05000
C3      1  0.070160  0.192190  0.482340  1.000000 0.05000
</imidazole>

<DMSO>
rem Src: Gaussian 03 MP2/LANL2DZ Opt
rem Name: Dimethyl sulfoxide, DMSO, (CH3)2SO
RESI DMSO
SIMU O1 > C2
RIGU O1 > C2
SADI S1 C1 S1 C2
SADI 0.04 C1 O1 C2 O1
SADI 0.02 S1 O1
FRAG 17 1 1 1 90 90 90
O1    1   -0.000033    1.580618    0.415264
S1    2   -0.000001    0.178542   -0.524118
C1    3    1.426906   -0.809456    0.234348
C2    3   -1.426877   -0.809502    0.234347
</DMSO>


<ClO4>
rem Name: Perchlorate anion, ClO4-
rem Src: Gaussian 03 B3LYP/6-311++G(d,p) Opt
RESI CLO4
SADI Cl1 O1 Cl1 O2 Cl1 O3 Cl1 O4
SADI 0.04 O1 O3 O2 O4 O1 O4 O2 O3 O1 O2 O3 O4
SIMU Cl1 > O4
RIGU Cl1 > O4
FRAG 17 1 1 1 90 90 90
Cl1  17   -0.000002    0.000017    0.000046
O1   8    -0.349817    1.212079   -0.813509
O2   8     1.331912    0.208002    0.660509
O3   8     0.068545   -1.201825   -0.896794
O4   8    -1.050637   -0.218292    1.049695
</ClO4>


